Title Card Required                                                     
SP        RCCSD-FC                                                    3-21G               
Number of atoms                            I                5
Info1-9                                    I   N=           9
          21          21           0           0           0         110
           1          14         301
Charge                                     I                0
Multiplicity                               I                1
Number of electrons                        I               10
Number of alpha electrons                  I                5
Number of beta electrons                   I                5
Number of basis functions                  I               17
Number of independent functions            I               17
Number of point charges in /Mol/           I                0
Number of translation vectors              I                0
Atomic numbers                             I   N=           5
           6           1           1           1           1
Nuclear charges                            R   N=           5
  6.00000000E+00  1.00000000E+00  1.00000000E+00  1.00000000E+00  1.00000000E+00
Current cartesian coordinates              R   N=          15
  1.27598035E-40 -3.03300092E-24  3.03299505E-24  1.16740621E+00  1.16740621E+00
  1.16740621E+00 -1.16740621E+00 -1.16740621E+00  1.16740621E+00 -1.16740621E+00
  1.16740621E+00 -1.16740621E+00  1.16740621E+00 -1.16740621E+00 -1.16740621E+00
Force Field                                I                0
Int Atom Types                             I   N=           5
           0           0           0           0           0
MM charges                                 R   N=           5
  0.00000000E+00  0.00000000E+00  0.00000000E+00  0.00000000E+00  0.00000000E+00
Integer atomic weights                     I   N=           5
          12           1           1           1           1
Real atomic weights                        R   N=           5
  1.20000000E+01  1.00782504E+00  1.00782504E+00  1.00782504E+00  1.00782504E+00
Atom fragment info                         I   N=           5
           0           0           0           0           0
Atom residue num                           I   N=           5
           0           0           0           0           0
Nuclear spins                              I   N=           5
           0           1           1           1           1
Nuclear ZEff                               R   N=           5
 -3.60000000E+00 -1.00000000E+00 -1.00000000E+00 -1.00000000E+00 -1.00000000E+00
Nuclear ZNuc                               R   N=           5
  6.00000000E+00  1.00000000E+00  1.00000000E+00  1.00000000E+00  1.00000000E+00
Nuclear QMom                               R   N=           5
  0.00000000E+00  0.00000000E+00  0.00000000E+00  0.00000000E+00  0.00000000E+00
Nuclear GFac                               R   N=           5
  0.00000000E+00  2.79284600E+00  2.79284600E+00  2.79284600E+00  2.79284600E+00
MicOpt                                     I   N=           5
          -1          -1          -1          -1          -1
Number of contracted shells                I               11
Number of primitive shells                 I               18
Pure/Cartesian d shells                    I                1
Pure/Cartesian f shells                    I                0
Highest angular momentum                   I                1
Largest degree of contraction              I                3
Shell types                                I   N=          11
           0          -1          -1           0           0           0
           0           0           0           0           0
Number of primitives per shell             I   N=          11
           3           2           1           2           1           2
           1           2           1           2           1
Shell to atom map                          I   N=          11
           1           1           1           2           2           3
           3           4           4           5           5
Primitive exponents                        R   N=          18
  1.72256000E+02  2.59109000E+01  5.53335000E+00  3.66498000E+00  7.70545000E-01
  1.95857000E-01  5.44717800E+00  8.24547240E-01  1.83191580E-01  5.44717800E+00
  8.24547240E-01  1.83191580E-01  5.44717800E+00  8.24547240E-01  1.83191580E-01
  5.44717800E+00  8.24547240E-01  1.83191580E-01
Contraction coefficients                   R   N=          18
  6.17669074E-02  3.58794043E-01  7.00713084E-01 -3.95895162E-01  1.21583436E+00
  1.00000000E+00  1.56284979E-01  9.04690877E-01  1.00000000E+00  1.56284979E-01
  9.04690877E-01  1.00000000E+00  1.56284979E-01  9.04690877E-01  1.00000000E+00
  1.56284979E-01  9.04690877E-01  1.00000000E+00
P(S=P) Contraction coefficients            R   N=          18
  0.00000000E+00  0.00000000E+00  0.00000000E+00  2.36459947E-01  8.60618806E-01
  1.00000000E+00  0.00000000E+00  0.00000000E+00  0.00000000E+00  0.00000000E+00
  0.00000000E+00  0.00000000E+00  0.00000000E+00  0.00000000E+00  0.00000000E+00
  0.00000000E+00  0.00000000E+00  0.00000000E+00
Coordinates of each shell                  R   N=          33
  6.06599116E-24 -5.51453742E-24  5.51453742E-25  6.06599116E-24 -5.51453742E-24
  5.51453742E-25  6.06599116E-24 -5.51453742E-24  5.51453742E-25  1.16740621E+00
  1.16740621E+00  1.16740621E+00  1.16740621E+00  1.16740621E+00  1.16740621E+00
 -1.16740621E+00 -1.16740621E+00  1.16740621E+00 -1.16740621E+00 -1.16740621E+00
  1.16740621E+00 -1.16740621E+00  1.16740621E+00 -1.16740621E+00 -1.16740621E+00
  1.16740621E+00 -1.16740621E+00  1.16740621E+00 -1.16740621E+00 -1.16740621E+00
  1.16740621E+00 -1.16740621E+00 -1.16740621E+00
Constraint Structure                       R   N=          15
  6.06599116E-24 -5.51453742E-24  5.51453742E-25  1.16740621E+00  1.16740621E+00
  1.16740621E+00 -1.16740621E+00 -1.16740621E+00  1.16740621E+00 -1.16740621E+00
  1.16740621E+00 -1.16740621E+00  1.16740621E+00 -1.16740621E+00 -1.16740621E+00
Num ILSW                                   I              100
ILSW                                       I   N=         100
           0           1           0           0           2           0
           0           0           0           0           0          -1
           0           0           0           0           0           0
           0           0           1           0           0           0
           1           0           0           0           0           0
           0           0      100000           0          -1           0
           0           0           0           0           0           0
           0           0           0           1           4           0
           0           0           1           0           0           0
           0           0           4          41           0           0
           0           0           0           0           0           0
           0           0           0           0           0           0
           0           0           0           0           0           0
           0           0           0           0           0           0
           0           0           0           0           0           0
           0           0           0           0           0           0
           0           0           0           0
Num RLSW                                   I               41
RLSW                                       R   N=          41
  1.00000000E+00  1.00000000E+00  1.00000000E+00  1.00000000E+00  1.00000000E+00
  0.00000000E+00  0.00000000E+00  1.00000000E+00  0.00000000E+00  0.00000000E+00
  0.00000000E+00  0.00000000E+00  1.00000000E+00  0.00000000E+00  0.00000000E+00
  0.00000000E+00  0.00000000E+00  1.00000000E+00  0.00000000E+00  0.00000000E+00
  0.00000000E+00  0.00000000E+00  1.00000000E+00  0.00000000E+00  0.00000000E+00
  0.00000000E+00  0.00000000E+00  1.00000000E+00  0.00000000E+00  0.00000000E+00
  0.00000000E+00  0.00000000E+00  1.00000000E+00  0.00000000E+00  0.00000000E+00
  0.00000000E+00  0.00000000E+00  0.00000000E+00  1.00000000E+00  1.00000000E+00
  0.00000000E+00
MxBond                                     I                4
NBond                                      I   N=           5
           4           1           1           1           1
IBond                                      I   N=          20
           2           3           4           5           1           0
           0           0           1           0           0           0
           1           0           0           0           1           0
           0           0
RBond                                      R   N=          20
  1.00000000E+00  1.00000000E+00  1.00000000E+00  1.00000000E+00  1.00000000E+00
  0.00000000E+00  0.00000000E+00  0.00000000E+00  1.00000000E+00  0.00000000E+00
  0.00000000E+00  0.00000000E+00  1.00000000E+00  0.00000000E+00  0.00000000E+00
  0.00000000E+00  1.00000000E+00  0.00000000E+00  0.00000000E+00  0.00000000E+00
Virial Ratio                               R      2.000334829869994E+00
SCF Energy                                 R     -3.997640584832480E+01
MP2 Energy                                 R     -4.007414046212489E+01
MP3 Energy                                 R     -4.008730219922146E+01
MP4D Energy                                R     -4.009119079959449E+01
MP4DQ Energy                               R     -4.009073569670900E+01
MP4SDQ Energy                              R     -4.009105922757755E+01
Cluster Energy                             R     -4.009240437201198E+01
Total Energy                               R     -4.009240437201198E+01
Post-SCF wavefunction norm                 R      1.025581845116678E+00
RMS Density                                R      2.298576941798403E-10
External E-field                           R   N=          35
  0.00000000E+00  0.00000000E+00  0.00000000E+00  0.00000000E+00  0.00000000E+00
  0.00000000E+00  0.00000000E+00  0.00000000E+00  0.00000000E+00  0.00000000E+00
  0.00000000E+00  0.00000000E+00  0.00000000E+00  0.00000000E+00  0.00000000E+00
  0.00000000E+00  0.00000000E+00  0.00000000E+00  0.00000000E+00  0.00000000E+00
  0.00000000E+00  0.00000000E+00  0.00000000E+00  0.00000000E+00  0.00000000E+00
  0.00000000E+00  0.00000000E+00  0.00000000E+00  0.00000000E+00  0.00000000E+00
  0.00000000E+00  0.00000000E+00  0.00000000E+00  0.00000000E+00  0.00000000E+00
IOpCl                                      I                0
IROHF                                      I                0
Alpha Orbital Energies                     R   N=          17
 -1.11382629E+01 -9.51247122E-01 -5.48298108E-01 -5.48298108E-01 -5.48298108E-01
  3.00010133E-01  3.56701982E-01  3.56701982E-01  3.56701982E-01  9.15382774E-01
  9.15382774E-01  9.15382774E-01  1.35396139E+00  1.37169816E+00  1.37169816E+00
  1.37169816E+00  1.96129882E+00
Alpha MO coefficients                      R   N=         289
  9.87071059E-01  9.96407270E-02  0.00000000E+00  0.00000000E+00  0.00000000E+00
 -7.35422236E-02  0.00000000E+00  0.00000000E+00  0.00000000E+00 -6.72188771E-04
  1.44495805E-02 -6.72188771E-04  1.44495805E-02 -6.72188771E-04  1.44495805E-02
 -6.72188771E-04  1.44495805E-02 -2.09445410E-01  2.03274373E-01  0.00000000E+00
  0.00000000E+00  0.00000000E+00  6.12131365E-01  0.00000000E+00  0.00000000E+00
  0.00000000E+00  1.24388467E-01  2.00233597E-02  1.24388467E-01  2.00233597E-02
  1.24388467E-01  2.00233597E-02  1.24388467E-01  2.00233597E-02  0.00000000E+00
  0.00000000E+00  0.00000000E+00  0.00000000E+00  3.76574505E-01  0.00000000E+00
  0.00000000E+00  0.00000000E+00  3.08536530E-01  1.60290211E-01  1.47246639E-01
  1.60290211E-01  1.47246639E-01 -1.60290211E-01 -1.47246639E-01 -1.60290211E-01
 -1.47246639E-01  0.00000000E+00  0.00000000E+00  0.00000000E+00  3.76574505E-01
  0.00000000E+00  0.00000000E+00  0.00000000E+00  3.08536530E-01  0.00000000E+00
  1.60290211E-01  1.47246639E-01 -1.60290211E-01 -1.47246639E-01  1.60290211E-01
  1.47246639E-01 -1.60290211E-01 -1.47246639E-01  0.00000000E+00  0.00000000E+00
  3.76574505E-01  0.00000000E+00  0.00000000E+00  0.00000000E+00  3.08536530E-01
  0.00000000E+00  0.00000000E+00  1.60290211E-01  1.47246639E-01 -1.60290211E-01
 -1.47246639E-01 -1.60290211E-01 -1.47246639E-01  1.60290211E-01  1.47246639E-01
 -1.78291223E-01  3.88672835E-02  0.00000000E+00  0.00000000E+00  0.00000000E+00
  2.58949309E+00  0.00000000E+00  0.00000000E+00  0.00000000E+00  8.08243309E-03
 -9.71260627E-01  8.08243309E-03 -9.71260627E-01  8.08243309E-03 -9.71260627E-01
  8.08243309E-03 -9.71260627E-01  0.00000000E+00  0.00000000E+00  0.00000000E+00
  0.00000000E+00  2.65474725E-01  0.00000000E+00  0.00000000E+00  0.00000000E+00
  1.45506012E+00 -4.69557005E-02 -1.07012896E+00 -4.69557005E-02 -1.07012896E+00
  4.69557005E-02  1.07012896E+00  4.69557005E-02  1.07012896E+00  0.00000000E+00
  0.00000000E+00  0.00000000E+00  2.65474725E-01  0.00000000E+00  0.00000000E+00
  0.00000000E+00  1.45506012E+00  0.00000000E+00 -4.69557005E-02 -1.07012896E+00
  4.69557005E-02  1.07012896E+00 -4.69557005E-02 -1.07012896E+00  4.69557005E-02
  1.07012896E+00  0.00000000E+00  0.00000000E+00  2.65474725E-01  0.00000000E+00
  0.00000000E+00  0.00000000E+00  1.45506012E+00  0.00000000E+00  0.00000000E+00
 -4.69557005E-02 -1.07012896E+00  4.69557005E-02  1.07012896E+00  4.69557005E-02
  1.07012896E+00 -4.69557005E-02 -1.07012896E+00  0.00000000E+00  0.00000000E+00
  0.00000000E+00 -7.36250214E-01  0.00000000E+00  0.00000000E+00  0.00000000E+00
  1.25710842E+00  0.00000000E+00 -3.77814921E-01  6.69680871E-03  3.77814921E-01
 -6.69680871E-03 -3.77814921E-01  6.69680871E-03  3.77814921E-01 -6.69680871E-03
  0.00000000E+00  0.00000000E+00  0.00000000E+00  0.00000000E+00 -7.36250214E-01
  0.00000000E+00  0.00000000E+00  0.00000000E+00  1.25710842E+00 -3.77814921E-01
  6.69680871E-03 -3.77814921E-01  6.69680871E-03  3.77814921E-01 -6.69680871E-03
  3.77814921E-01 -6.69680871E-03  0.00000000E+00  0.00000000E+00 -7.36250214E-01
  0.00000000E+00  0.00000000E+00  0.00000000E+00  1.25710842E+00  0.00000000E+00
  0.00000000E+00 -3.77814921E-01  6.69680871E-03  3.77814921E-01 -6.69680871E-03
  3.77814921E-01 -6.69680871E-03 -3.77814921E-01  6.69680871E-03  1.33422220E-01
 -1.26460842E-01  0.00000000E+00  0.00000000E+00  0.00000000E+00 -4.11854767E-01
  0.00000000E+00  0.00000000E+00  0.00000000E+00  6.76972782E-01 -2.23804316E-01
  6.76972782E-01 -2.23804316E-01  6.76972782E-01 -2.23804316E-01  6.76972782E-01
 -2.23804316E-01  0.00000000E+00  0.00000000E+00  0.00000000E+00  0.00000000E+00
 -8.77172016E-01  0.00000000E+00  0.00000000E+00  0.00000000E+00  9.92932797E-01
  5.40256818E-01 -8.22220754E-01  5.40256818E-01 -8.22220754E-01 -5.40256818E-01
  8.22220754E-01 -5.40256818E-01  8.22220754E-01  0.00000000E+00  0.00000000E+00
 -8.77172016E-01  0.00000000E+00  0.00000000E+00  0.00000000E+00  9.92932797E-01
  0.00000000E+00  0.00000000E+00  5.40256818E-01 -8.22220754E-01 -5.40256818E-01
  8.22220754E-01 -5.40256818E-01  8.22220754E-01  5.40256818E-01 -8.22220754E-01
  0.00000000E+00  0.00000000E+00  0.00000000E+00 -8.77172016E-01  0.00000000E+00
  0.00000000E+00  0.00000000E+00  9.92932797E-01  0.00000000E+00  5.40256818E-01
 -8.22220754E-01 -5.40256818E-01  8.22220754E-01  5.40256818E-01 -8.22220754E-01
 -5.40256818E-01  8.22220754E-01 -1.74465321E-02 -2.01041806E+00  0.00000000E+00
  0.00000000E+00  0.00000000E+00  4.01091764E+00  0.00000000E+00  0.00000000E+00
  0.00000000E+00 -1.36363076E-01 -8.00080680E-01 -1.36363076E-01 -8.00080680E-01
 -1.36363076E-01 -8.00080680E-01 -1.36363076E-01 -8.00080680E-01
Total SCF Density                          R   N=         153
  2.03635331E+00  1.11555187E-01  1.02497490E-01  0.00000000E+00  0.00000000E+00
  2.83616715E-01  0.00000000E+00  0.00000000E+00 -8.93612077E-17  2.83616715E-01
  0.00000000E+00  0.00000000E+00 -1.11373354E-16  3.93597259E-17  2.83616715E-01
 -4.01599011E-01  2.34205637E-01  0.00000000E+00  0.00000000E+00  0.00000000E+00
  7.60226533E-01  0.00000000E+00  0.00000000E+00  2.32373982E-01 -7.32157823E-17
 -9.12508621E-17  0.00000000E+00  1.90389581E-01  0.00000000E+00  0.00000000E+00
 -7.32157823E-17  2.32373982E-01  3.22483681E-17  0.00000000E+00 -5.99874478E-17
  1.90389581E-01  0.00000000E+00  0.00000000E+00 -9.12508621E-17  3.22483681E-17
  2.32373982E-01  0.00000000E+00 -7.47640215E-17  2.64218620E-17  1.90389581E-01
 -5.34321830E-02  5.04360203E-02  1.20722413E-01  1.20722413E-01  1.20722413E-01
  1.52383032E-01  9.89107709E-02  9.89107709E-02  9.89107709E-02  1.85103595E-01
  2.01379240E-02  1.10200052E-02  1.10898660E-01  1.10898660E-01  1.10898660E-01
  2.23885444E-02  9.08619341E-02  9.08619341E-02  9.08619341E-02  1.46575093E-01
  1.31308887E-01 -5.34321830E-02  5.04360203E-02 -1.20722413E-01 -1.20722413E-01
  1.20722413E-01  1.52383032E-01 -9.89107709E-02 -9.89107709E-02  9.89107709E-02
 -2.04400184E-02 -4.22424653E-02  1.85103595E-01  2.01379240E-02  1.10200052E-02
 -1.10898660E-01 -1.10898660E-01  1.10898660E-01  2.23885444E-02 -9.08619341E-02
 -9.08619341E-02  9.08619341E-02 -4.22424653E-02 -4.21436947E-02  1.46575093E-01
  1.31308887E-01 -5.34321830E-02  5.04360203E-02 -1.20722413E-01  1.20722413E-01
 -1.20722413E-01  1.52383032E-01 -9.89107709E-02  9.89107709E-02 -9.89107709E-02
 -2.04400184E-02 -4.22424653E-02 -2.04400184E-02 -4.22424653E-02  1.85103595E-01
  2.01379240E-02  1.10200052E-02 -1.10898660E-01  1.10898660E-01 -1.10898660E-01
  2.23885444E-02 -9.08619341E-02  9.08619341E-02 -9.08619341E-02 -4.22424653E-02
 -4.21436947E-02 -4.22424653E-02 -4.21436947E-02  1.46575093E-01  1.31308887E-01
 -5.34321830E-02  5.04360203E-02  1.20722413E-01 -1.20722413E-01 -1.20722413E-01
  1.52383032E-01  9.89107709E-02 -9.89107709E-02 -9.89107709E-02 -2.04400184E-02
 -4.22424653E-02 -2.04400184E-02 -4.22424653E-02 -2.04400184E-02 -4.22424653E-02
  1.85103595E-01  2.01379240E-02  1.10200052E-02  1.10898660E-01 -1.10898660E-01
 -1.10898660E-01  2.23885444E-02  9.08619341E-02 -9.08619341E-02 -9.08619341E-02
 -4.22424653E-02 -4.21436947E-02 -4.22424653E-02 -4.21436947E-02 -4.22424653E-02
 -4.21436947E-02  1.46575093E-01  1.31308887E-01
Mulliken Charges                           R   N=           5
 -8.02354976E-01  2.00588744E-01  2.00588744E-01  2.00588744E-01  2.00588744E-01
Optimization MaxStp                        I              100
Optimization Job offset                    I                0
Optimization Num results per geometry      I                2
Optimization Num geometry variables        I               15
Opt point       1 Results for each geome   R   N=          10
 -3.99775641E+01  0.00000000E+00 -3.99923021E+01  0.00000000E+00 -3.99925096E+01
  0.00000000E+00 -3.99925302E+01  0.00000000E+00 -3.99925340E+01  0.00000000E+00
Opt point       1 Geometries               R   N=          75
  1.27598035E-40 -3.03300092E-24  3.03299505E-24  1.16740621E+00  1.16740621E+00
  1.16740621E+00 -1.16740621E+00 -1.16740621E+00  1.16740621E+00 -1.16740621E+00
  1.16740621E+00 -1.16740621E+00  1.16740621E+00 -1.16740621E+00 -1.16740621E+00
  2.02277697E-06 -3.76215246E-07 -2.12309093E-06  1.67612747E+00 -1.35436332E-01
 -1.17114934E+00 -1.43950662E-01 -1.66804314E+00  1.18162331E+00  1.27308191E-01
  1.66764972E+00  1.18408570E+00 -1.65949713E+00  1.35832007E-01 -1.19454694E+00
  4.66540475E-03 -2.66925242E-06 -1.29935044E-05  6.94917320E-01 -1.54248467E+00
 -1.16382172E+00 -2.08302233E+00 -7.28556845E-03 -7.57380821E-03  6.78679505E-01
 -2.35247356E-01  1.92366902E+00  6.81433077E-01  1.78503361E+00 -7.52195525E-01
  5.92505769E-03  3.10551897E-05 -1.55885520E-05  6.87030374E-01 -1.18048029E+00
 -1.52910911E+00 -2.07925736E+00 -1.02747461E-02  2.41317018E-04  6.85114592E-01
 -7.29006759E-01  1.78965081E+00  6.71562052E-01  1.91957546E+00 -2.60689488E-01
  6.90546785E-03  4.33630087E-06 -1.75957439E-06  6.79822525E-01 -1.22683863E+00
 -1.49268555E+00 -2.07894609E+00 -1.41270966E-03  2.72639032E-04  6.79881895E-01
 -6.78522162E-01  1.80907961E+00  6.77808862E-01  1.90674748E+00 -3.16656141E-01
Opt point       1 Gradient at each geome   R   N=          75
 -6.41232982E-07  7.44796107E-10 -9.15120439E-10 -5.83962497E-03 -5.88216656E-03
 -5.88216659E-03  5.83994707E-03  5.88220234E-03 -5.88220173E-03  5.83994454E-03
 -5.88220267E-03  5.88220242E-03 -5.83962540E-03  5.88216614E-03  5.88216681E-03
 -9.94089002E-04 -1.15463491E-02  8.18565843E-03  7.79194963E-04  2.04011005E-04
 -6.74443280E-04  8.61903461E-04  1.00040546E-02 -7.13491457E-03  7.95926941E-05
  1.01099333E-03  3.08747508E-04 -7.26602116E-04  3.27290198E-04 -6.85048091E-04
 -2.54875243E-03 -1.91644153E-05 -2.83550453E-05  1.14790552E-03 -1.52495189E-03
 -1.14727596E-03 -8.31982131E-04  8.12297328E-06  9.40286138E-06  1.11387408E-03
 -2.32474949E-04  1.90704931E-03  1.11895495E-03  1.76846828E-03 -7.40821163E-04
 -1.43495754E-03 -6.31762263E-06 -1.19429205E-05  4.33756490E-04 -4.84301405E-04
 -6.06989433E-04  1.55876494E-04  1.09200331E-05  1.70982374E-06  4.32892309E-04
 -3.01686278E-04  7.19566688E-04  4.12432242E-04  7.81385273E-04 -1.02344158E-04
 -7.56665125E-05  7.99141058E-07 -9.50113819E-07  8.24643199E-06 -5.91008028E-06
 -5.49707662E-06  5.30089389E-05  1.58577918E-06 -1.67126601E-07  8.45579649E-06
 -3.63132296E-06  7.43354732E-06  5.95534505E-06  7.15648301E-06 -8.19230278E-07
Optimization Number of geometries          I   N=           1
           5
ONIOM Charges                              I   N=          16
           0           0           0           0           0           0
           0           0           0           0           0           0
           0           0           0           0
ONIOM Multiplicities                       I   N=          16
           1           0           0           0           0           0
           0           0           0           0           0           0
           0           0           0           0
Atom Layers                                I   N=           5
           1           1           1           1           1
Atom Modifiers                             I   N=           5
           0           0           0           0           0
Force Field                                I                0
Int Atom Modified Types                    I   N=           5
           0           0           0           0           0
Link Atoms                                 I   N=           5
           0           0           0           0           0
Atom Modified MM Charges                   R   N=           5
  0.00000000E+00  0.00000000E+00  0.00000000E+00  0.00000000E+00  0.00000000E+00
Link Distances                             R   N=          20
  0.00000000E+00  0.00000000E+00  0.00000000E+00  0.00000000E+00  0.00000000E+00
  0.00000000E+00  0.00000000E+00  0.00000000E+00  0.00000000E+00  0.00000000E+00
  0.00000000E+00  0.00000000E+00  0.00000000E+00  0.00000000E+00  0.00000000E+00
  0.00000000E+00  0.00000000E+00  0.00000000E+00  0.00000000E+00  0.00000000E+00
Cartesian Gradient                         R   N=          15
  0.00000000E+00  0.00000000E+00  0.00000000E+00  0.00000000E+00  0.00000000E+00
  0.00000000E+00  0.00000000E+00  0.00000000E+00  0.00000000E+00  0.00000000E+00
  0.00000000E+00  0.00000000E+00  0.00000000E+00  0.00000000E+00  0.00000000E+00
