 DBCSR| Multiplication driver                                               BLAS
 DBCSR| Multrec recursion limit                                              512
 DBCSR| Multiplication stack size                                           1000
 DBCSR| Maximum elements for images                                    UNLIMITED
 DBCSR| Randmat seed                                                    12341313
 DBCSR| Multiplication size stacks                                             3
 DBCSR| Use MPI memory allocation                                              T
 DBCSR| Use RMA algorithm                                                      F
 DBCSR| Use Communication thread                                               T
 DBCSR| Communication thread load                                             87


  **** **** ******  **  PROGRAM STARTED AT               2016-12-06 22:53:00.489
 ***** ** ***  *** **   PROGRAM STARTED ON                                cn4828
 **    ****   ******    PROGRAM STARTED BY                   tsinghua_chem_jli_1
 ***** **    ** ** **   PROGRAM PROCESS ID                                 27663
  **** **  *******  **  PROGRAM STARTED IN /WORK/tsinghua_chem_jli_1/TGMin2/CoB2
                                           2p/scratch/worker1

 CP2K| version string:                                          CP2K version 3.0
 CP2K| source code revision number:                                    svn:16458
 CP2K| cp2kflags: omp libint fftw3 libxc parallel mpi2 scalapack libderiv_max_am
 CP2K|            1=5 libint_max_am=6
 CP2K| is freely available from                            https://www.cp2k.org/
 CP2K| Program compiled at                          Tue Apr 19 20:44:13 CST 2016
 CP2K| Program compiled on                                                   ln1
 CP2K| Program compiled for                              Linux-x86-64-intel-host
 CP2K| Data directory path            /HOME/nscc_ts_1/tars/chenpin/cp2k-3.0/data
 CP2K| Input file name                                            GeoOpt_1.0.inp
 
 GLOBAL| Force Environment number                                              1
 GLOBAL| Basis set file name                                      GTH_POTENTIALS
 GLOBAL| MM Potential file name                                     MM_POTENTIAL
 GLOBAL| Coordinate file name                                      __STD_INPUT__
 GLOBAL| Method name                                                        CP2K
 GLOBAL| Project name                                                       cp2k
 GLOBAL| Preferred FFT library                                             FFTW3
 GLOBAL| Preferred diagonalization lib.                                       SL
 GLOBAL| Run type                                                        GEO_OPT
 GLOBAL| All-to-all communication in single precision                          F
 GLOBAL| FFTs using library dependent lengths                                  F
 GLOBAL| Global print level                                                  LOW
 GLOBAL| Total number of message passing processes                            24
 GLOBAL| Number of threads for this process                                    1
 GLOBAL| This output is from process                                           0
 GLOBAL| CPU model name :  Intel(R) Xeon(R) CPU E5-2692 v2 @ 2.20GHz

 MEMORY| system memory details [Kb]
 MEMORY|                        rank 0           min           max       average
 MEMORY| MemTotal             66085416      66085416      66085416      66085416
 MEMORY| MemFree              61354848      61354848      61354848      61354848
 MEMORY| Buffers                     0             0             0             0
 MEMORY| Cached                 902624        902624        902624        902624
 MEMORY| Slab                   173188        173188        173188        173188
 MEMORY| SReclaimable            16276         16276         16276         16276
 MEMORY| MemLikelyFree        62273748      62273748      62273748      62273748

 
 GENERATE|  Preliminary Number of Bonds generated:                             0
 GENERATE|  Achieved consistency in connectivity generation.

 *******************************************************************************
 *******************************************************************************
 **                                                                           **
 **     #####                         ##              ##                      **
 **    ##   ##            ##          ##              ##                      **
 **   ##     ##                       ##            ######                    **
 **   ##     ##  ##   ##  ##   #####  ##  ##   ####   ##    #####    #####    **
 **   ##     ##  ##   ##  ##  ##      ## ##   ##      ##   ##   ##  ##   ##   **
 **   ##  ## ##  ##   ##  ##  ##      ####     ###    ##   ######   ######    **
 **    ##  ###   ##   ##  ##  ##      ## ##      ##   ##   ##       ##        **
 **     #######   #####   ##   #####  ##  ##  ####    ##    #####   ##        **
 **           ##                                                    ##        **
 **                                                                           **
 **                                                ... make the atoms dance   **
 **                                                                           **
 **            Copyright (C) by CP2K Developers Group (2000 - 2015)           **
 **                                                                           **
 *******************************************************************************


 MODULE QUICKSTEP:  ATOMIC COORDINATES IN angstrom

  Atom  Kind  Element       X           Y           Z          Z(eff)       Mass

       1     1 Co  27    9.154723   10.000000   10.567039     17.00      58.9332
       2     2 B    5   10.826844    9.088066   10.119920      3.00      10.8110
       3     2 B    5   10.826844   10.911934   10.119920      3.00      10.8110
       4     2 B    5   12.374329   11.522356    9.840466      3.00      10.8110
       5     2 B    5    7.850343   11.485853   10.265790      3.00      10.8110
       6     2 B    5    7.207401   10.000000   10.680374      3.00      10.8110
       7     2 B    5    6.323797    9.272487    9.498433      3.00      10.8110
       8     2 B    5    7.850343    8.514147   10.265790      3.00      10.8110
       9     2 B    5    9.460755    8.061222   10.173596      3.00      10.8110
      10     2 B    5    9.769935    6.504330    9.450141      3.00      10.8110
      11     2 B    5   11.146705   12.526385    9.788498      3.00      10.8110
      12     2 B    5    8.269564   13.026421    9.596193      3.00      10.8110
      13     2 B    5   11.146705    7.473615    9.788498      3.00      10.8110
      14     2 B    5   12.374329    8.477644    9.840466      3.00      10.8110
      15     2 B    5    9.460755   11.938778   10.173596      3.00      10.8110
      16     2 B    5    9.769935   13.495670    9.450141      3.00      10.8110
      17     2 B    5   12.426302   10.000000    9.933710      3.00      10.8110
      18     2 B    5    6.817369   12.425510    9.319626      3.00      10.8110
      19     2 B    5    8.269564    6.973579    9.596193      3.00      10.8110
      20     2 B    5    6.323797   10.727513    9.498433      3.00      10.8110
      21     2 B    5    6.817369    7.574490    9.319626      3.00      10.8110
      22     2 B    5   13.676203    9.239344    9.691255      3.00      10.8110
      23     2 B    5   13.676203   10.760656    9.691255      3.00      10.8110




 SCF PARAMETERS         Density guess:                                   RESTART
                        --------------------------------------------------------
                        max_scf:                                             300
                        max_scf_history:                                       0
                        max_diis:                                              4
                        --------------------------------------------------------
                        eps_scf:                                        1.00E-05
                        eps_scf_history:                                0.00E+00
                        eps_diis:                                       1.00E-01
                        eps_eigval:                                     1.00E-05
                        --------------------------------------------------------
                        level_shift [a.u.]:                                 0.00
                        --------------------------------------------------------
                        Outer loop SCF in use 
                        No variables optimised in outer loop
                        eps_scf                                         1.00E-05
                        max_scf                                                2
                        No outer loop optimization
                        step_size                                       5.00E-01

 *******************************************************************************
 ***                     STARTING GEOMETRY OPTIMIZATION                      ***
 ***                                 L-BFGS                                  ***
 *******************************************************************************

 --------------------------
 OPTIMIZATION STEP:      1
 --------------------------

 Number of electrons:                                                         84
 Number of occupied orbitals:                                                 42
 Number of molecular orbitals:                                                42

 Number of orbital functions:                                                312
 Number of independent orbital functions:                                    312

 Extrapolation method: initial_guess

 *** WARNING in qs_initial_guess.F:277 :: User requested to restart the    ***
 *** wavefunction from the file named: ./cp2k-RESTART.wfn. This file does  ***
 *** not exist. Please check the existence of the file or change properly  ***
 *** the value of the keyword WFN_RESTART_FILE_NAME. Calculation continues ***
 *** using ATOMIC GUESS.                                                   ***



 SCF WAVEFUNCTION OPTIMIZATION

  ----------------------------------- OT ---------------------------------------
  Minimizer      : CG                  : conjugate gradient
  Preconditioner : FULL_ALL            : diagonalization, state selective
  Precond_solver : DEFAULT
  Line search    : 3PNT                : 3 energies
  stepsize       :    0.15000000                  energy_gap     :    0.08000000
  eps_taylor     :   0.10000E-15                  max_taylor     :             4
  ----------------------------------- OT ---------------------------------------

  Step     Update method      Time    Convergence         Total energy    Change
  ------------------------------------------------------------------------------
     1 OT CG       0.12E+00    2.9     0.09891568      -197.8337145208 -1.98E+02
     2 OT LS       0.17E+00    1.0                     -199.2417766933
     3 OT LS       0.67E-01    1.0                     -193.1434627732
     4 OT CG       0.54E-01    1.9     0.10158826      -202.4830495302 -4.65E+00
     5 OT LS       0.75E-01    1.0                     -203.9156587412
     6 OT LS       0.38E-01    1.0                     -202.5454561126
     7 OT CG       0.30E-01    1.9     0.06757332      -204.4412075983 -1.96E+00
     8 OT LS       0.42E-01    1.0                     -205.4829195446
     9 OT LS       0.42E-01    1.0                     -205.5650300722
    10 OT CG       0.33E-01    1.9     0.03928896      -205.5655267580 -1.12E+00
    11 OT LS       0.47E-01    1.0                     -206.0742464171
    12 OT LS       0.70E-01    1.0                     -206.1882447380
    13 OT CG       0.56E-01    1.9     0.03134166      -206.2725080029 -7.07E-01
    14 OT LS       0.78E-01    1.0                     -206.3871027564
    15 OT LS       0.32E-01    1.0                     -206.0339933628
    16 OT CG       0.26E-01    1.8     0.02002245      -206.5027613603 -2.30E-01
    17 OT LS       0.36E-01    1.0                     -206.6226288715
    18 OT LS       0.89E-01    1.0                     -206.6591687482
    19 OT CG       0.71E-01    1.9     0.01476807      -206.7428185027 -2.40E-01
    20 OT LS       0.10E+00    1.0                     -206.8645999429
    21 OT LS       0.90E-01    1.0                     -206.8688840246
    22 OT CG       0.72E-01    1.9     0.01086462      -206.8702424552 -1.27E-01
    23 OT LS       0.10E+00    1.0                     -206.9150617046
    24 OT LS       0.59E-01    1.0                     -206.8936012366
    25 OT CG       0.47E-01    1.9     0.01242886      -206.9171880048 -4.69E-02
    26 OT LS       0.66E-01    1.0                     -206.9680864192
    27 OT LS       0.51E-01    1.0                     -206.9642097778
    28 OT CG       0.41E-01    1.9     0.00648409      -206.9683659778 -5.12E-02
    29 OT LS       0.58E-01    1.0                     -206.9873775692
    30 OT LS       0.13E+00    1.0                     -206.9929750336
    31 OT CG       0.10E+00    1.9     0.00495521      -207.0037467380 -3.54E-02
    32 OT LS       0.15E+00    1.0                     -207.0210894319
    33 OT LS       0.11E+00    1.0                     -207.0197207026
    34 OT CG       0.90E-01    1.9     0.00512003      -207.0211804904 -1.74E-02
    35 OT LS       0.45E-01    1.0                     -207.0135993360
    36 OT LS       0.36E-01    1.0                     -207.0271978276
    37 OT CG       0.29E-01    1.9     0.00379018      -207.0275258824 -6.35E-03
    38 OT LS       0.41E-01    1.0                     -207.0323112016
    39 OT LS       0.11E+00    1.0                     -207.0338067340
    40 OT CG       0.86E-01    1.9     0.00279248      -207.0377993746 -1.03E-02
    41 OT LS       0.12E+00    1.0                     -207.0440665789
    42 OT LS       0.15E+00    1.0                     -207.0451316179
    43 OT CG       0.12E+00    1.9     0.00244904      -207.0453926483 -7.59E-03
    44 OT LS       0.17E+00    1.0                     -207.0501495491
    45 OT LS       0.12E+00    1.0                     -207.0494631491
    46 OT CG       0.96E-01    1.9     0.00212817      -207.0501508397 -4.76E-03
    47 OT LS       0.13E+00    1.0                     -207.0533320608
    48 OT LS       0.11E+00    1.0                     -207.0532334528
    49 OT CG       0.88E-01    1.9     0.00274691      -207.0533844930 -3.23E-03
    50 OT LS       0.44E-01    1.0                     -207.0514163794
    51 OT LS       0.36E-01    1.0                     -207.0551325003
    52 OT CG       0.29E-01    1.9     0.00161491      -207.0552102477 -1.83E-03
    53 OT LS       0.41E-01    1.0                     -207.0561297833
    54 OT LS       0.16E+00    1.0                     -207.0564520707
    55 OT CG       0.13E+00    1.9     0.00131976      -207.0582781322 -3.07E-03
    56 OT LS       0.18E+00    1.0                     -207.0598886008
    57 OT LS       0.13E+00    1.0                     -207.0596692603
    58 OT CG       0.11E+00    1.9     0.00208526      -207.0598890711 -1.61E-03
    59 OT LS       0.53E-01    1.0                     -207.0579260939
    60 OT LS       0.40E-01    1.0                     -207.0609722045
    61 OT CG       0.32E-01    1.9     0.00148405      -207.0610728545 -1.18E-03
    62 OT LS       0.45E-01    1.0                     -207.0618754205
    63 OT LS       0.11E+00    1.0                     -207.0621149149
    64 OT CG       0.84E-01    1.9     0.00128723      -207.0626133824 -1.54E-03
    65 OT LS       0.12E+00    1.0                     -207.0633023731
    66 OT LS       0.69E-01    1.0                     -207.0629677476
    67 OT CG       0.55E-01    1.9     0.00160173      -207.0633418118 -7.28E-04
    68 OT LS       0.77E-01    1.0                     -207.0642062743
    69 OT LS       0.51E-01    1.0                     -207.0639909085
    70 OT CG       0.41E-01    1.9     0.00097341      -207.0642102657 -8.68E-04
    71 OT LS       0.57E-01    1.0                     -207.0646391915
    72 OT LS       0.13E+00    1.0                     -207.0647640460
    73 OT CG       0.10E+00    1.9     0.00099995      -207.0649935620 -7.83E-04
    74 OT LS       0.50E-01    1.0                     -207.0648047386
    75 OT LS       0.44E-01    1.0                     -207.0652676043
    76 OT CG       0.35E-01    1.9     0.00094583      -207.0652743335 -2.81E-04
    77 OT LS       0.49E-01    1.0                     -207.0655950585
    78 OT LS       0.81E-01    1.0                     -207.0656739684
    79 OT CG       0.65E-01    1.8     0.00063439      -207.0657471572 -4.73E-04
    80 OT LS       0.91E-01    1.0                     -207.0660019276
    81 OT LS       0.13E+00    1.0                     -207.0660551337
    82 OT CG       0.10E+00    1.9     0.00073953      -207.0660822318 -3.35E-04
    83 OT LS       0.51E-01    1.0                     -207.0658642381
    84 OT LS       0.39E-01    1.0                     -207.0662073937
    85 OT CG       0.31E-01    1.9     0.00060431      -207.0662206528 -1.38E-04
    86 OT LS       0.44E-01    1.0                     -207.0663458872
    87 OT LS       0.97E-01    1.0                     -207.0663824086
    88 OT CG       0.77E-01    1.9     0.00044148      -207.0664507123 -2.30E-04
    89 OT LS       0.11E+00    1.0                     -207.0665906464
    90 OT LS       0.13E+00    1.0                     -207.0666143787
    91 OT CG       0.11E+00    1.9     0.00052102      -207.0666200020 -1.69E-04
    92 OT LS       0.53E-01    1.0                     -207.0664800201
    93 OT LS       0.39E-01    1.0                     -207.0666785418
    94 OT CG       0.31E-01    1.8     0.00042089      -207.0666882693 -6.83E-05
    95 OT LS       0.43E-01    1.0                     -207.0667491898
    96 OT LS       0.10E+00    1.0                     -207.0667675619
    97 OT CG       0.83E-01    1.9     0.00031031      -207.0668079813 -1.20E-04
    98 OT LS       0.12E+00    1.0                     -207.0668820697
    99 OT LS       0.14E+00    1.0                     -207.0668946854
   100 OT CG       0.11E+00    1.9     0.00037476      -207.0668977435 -8.98E-05
   101 OT LS       0.57E-01    1.0                     -207.0667933761
   102 OT LS       0.38E-01    1.0                     -207.0669236560
   103 OT CG       0.30E-01    1.8     0.00029990      -207.0669324674 -3.47E-05
   104 OT LS       0.42E-01    1.0                     -207.0669633925
   105 OT LS       0.11E+00    1.0                     -207.0669730962
   106 OT CG       0.91E-01    1.9     0.00022581      -207.0669992908 -6.68E-05
   107 OT LS       0.13E+00    1.0                     -207.0670399929
   108 OT LS       0.14E+00    1.0                     -207.0670450571
   109 OT CG       0.11E+00    1.9     0.00026901      -207.0670453240 -4.60E-05
   110 OT LS       0.55E-01    1.0                     -207.0670056215
   111 OT LS       0.40E-01    1.0                     -207.0670614258
   112 OT CG       0.32E-01    1.9     0.00022388      -207.0670641943 -1.89E-05
   113 OT LS       0.45E-01    1.0                     -207.0670817332
   114 OT LS       0.98E-01    1.0                     -207.0670868387
   115 OT CG       0.78E-01    1.9     0.00016630      -207.0670963334 -3.21E-05
   116 OT LS       0.11E+00    1.0                     -207.0671158489
   117 OT LS       0.13E+00    1.0                     -207.0671186858
   118 OT CG       0.10E+00    1.9     0.00016308      -207.0671190386 -2.27E-05
   119 OT LS       0.50E-01    1.0                     -207.0671164440
   120 OT LS       0.47E-01    1.0                     -207.0671271225
   121 OT CG       0.37E-01    1.9     0.00016149      -207.0671271684 -8.13E-06
   122 OT LS       0.52E-01    1.0                     -207.0671368904
   123 OT LS       0.78E-01    1.0                     -207.0671390714
   124 OT CG       0.63E-01    1.8     0.00010492      -207.0671405362 -1.34E-05
   125 OT LS       0.88E-01    1.0                     -207.0671476661
   126 OT LS       0.15E+00    1.0                     -207.0671494538
   127 OT CG       0.12E+00    1.9     0.00010552      -207.0671512600 -1.07E-05
   128 OT LS       0.60E-01    1.0                     -207.0671486759
   129 OT LS       0.52E-01    1.0                     -207.0671549462
   130 OT CG       0.41E-01    1.9     0.00011412      -207.0671550309 -3.77E-06
   131 OT LS       0.58E-01    1.0                     -207.0671601379
   132 OT LS       0.75E-01    1.0                     -207.0671610818
   133 OT CG       0.60E-01    1.8     0.00007998      -207.0671613970 -6.37E-06
   134 OT LS       0.84E-01    1.0                     -207.0671652348
   135 OT LS       0.13E+00    1.0                     -207.0671661169
   136 OT CG       0.10E+00    1.9     0.00007450      -207.0671667643 -5.37E-06
   137 OT LS       0.14E+00    1.0                     -207.0671693443
   138 OT LS       0.78E-01    1.0                     -207.0671676539
   139 OT CG       0.63E-01    1.9     0.00009483      -207.0671696129 -2.85E-06
   140 OT LS       0.88E-01    1.0                     -207.0671719884
   141 OT LS       0.46E-01    1.0                     -207.0671701243
   142 OT CG       0.37E-01    1.9     0.00005604      -207.0671723368 -2.72E-06
   143 OT LS       0.52E-01    1.0                     -207.0671736706
   144 OT LS       0.15E+00    1.0                     -207.0671740986
   145 OT CG       0.12E+00    1.9     0.00004831      -207.0671754128 -3.08E-06
   146 OT LS       0.17E+00    1.0                     -207.0671766128
   147 OT LS       0.89E-01    1.0                     -207.0671757190
   148 OT CG       0.71E-01    1.8     0.00006605      -207.0671767732 -1.36E-06
   149 OT LS       0.10E+00    1.0                     -207.0671777036
   150 OT LS       0.46E-01    1.0                     -207.0671763152
   151 OT CG       0.37E-01    1.9     0.00004264      -207.0671780926 -1.32E-06
   152 OT LS       0.52E-01    1.0                     -207.0671788500
   153 OT LS       0.13E+00    1.0                     -207.0671790843
   154 OT CG       0.11E+00    1.9     0.00003866      -207.0671796721 -1.58E-06
   155 OT LS       0.15E+00    1.0                     -207.0671808448
   156 OT LS       0.12E+00    1.0                     -207.0671808084
   157 OT CG       0.98E-01    1.9     0.00005471      -207.0671808650 -1.19E-06
   158 OT LS       0.49E-01    1.0                     -207.0671798033
   159 OT LS       0.38E-01    1.0                     -207.0671815564
   160 OT CG       0.31E-01    1.9     0.00003595      -207.0671816139 -7.49E-07
   161 OT LS       0.43E-01    1.0                     -207.0671820813
   162 OT LS       0.16E+00    1.0                     -207.0671822404
   163 OT CG       0.13E+00    1.9     0.00003191      -207.0671829551 -1.34E-06
   164 OT LS       0.18E+00    1.0                     -207.0671837222
   165 OT LS       0.12E+00    1.0                     -207.0671835129
   166 OT CG       0.93E-01    1.8     0.00004440      -207.0671837287 -7.74E-07
   167 OT LS       0.46E-01    1.0                     -207.0671833617
   168 OT LS       0.40E-01    1.0                     -207.0671842365
   169 OT CG       0.32E-01    1.9     0.00003103      -207.0671842487 -5.20E-07
   170 OT LS       0.45E-01    1.0                     -207.0671846007
   171 OT LS       0.12E+00    1.0                     -207.0671847112
   172 OT CG       0.97E-01    1.8     0.00002725      -207.0671850106 -7.62E-07
   173 OT LS       0.14E+00    1.0                     -207.0671855797
   174 OT LS       0.12E+00    1.0                     -207.0671855994
   175 OT CG       0.98E-01    1.8     0.00003203      -207.0671856061 -5.95E-07
   176 OT LS       0.49E-01    1.0                     -207.0671854372
   177 OT LS       0.43E-01    1.0                     -207.0671858930
   178 OT CG       0.35E-01    1.9     0.00002898      -207.0671858978 -2.92E-07
   179 OT LS       0.49E-01    1.0                     -207.0671862161
   180 OT LS       0.10E+00    1.0                     -207.0671863078
   181 OT CG       0.83E-01    1.8     0.00002217      -207.0671864709 -5.73E-07
   182 OT LS       0.12E+00    1.0                     -207.0671868743
   183 OT LS       0.17E+00    1.0                     -207.0671869609
   184 OT CG       0.13E+00    1.9     0.00002787      -207.0671870107 -5.40E-07
   185 OT LS       0.67E-01    1.0                     -207.0671861498
   186 OT LS       0.41E-01    1.0                     -207.0671871369
   187 OT CG       0.33E-01    1.9     0.00002511      -207.0671872201 -2.09E-07
   188 OT LS       0.46E-01    1.0                     -207.0671874538
   189 OT LS       0.12E+00    1.0                     -207.0671875261
   190 OT CG       0.94E-01    1.9     0.00002117      -207.0671877068 -4.87E-07
   191 OT LS       0.13E+00    1.0                     -207.0671880818
   192 OT LS       0.15E+00    1.0                     -207.0671881320
   193 OT CG       0.12E+00    1.9     0.00002540      -207.0671881361 -4.29E-07
   194 OT LS       0.58E-01    1.0                     -207.0671879632
   195 OT LS       0.50E-01    1.0                     -207.0671883403
   196 OT CG       0.40E-01    1.9     0.00002678      -207.0671883467 -2.11E-07
   197 OT LS       0.56E-01    1.0                     -207.0671886420
   198 OT LS       0.94E-01    1.0                     -207.0671887158
   199 OT CG       0.75E-01    1.9     0.00002184      -207.0671887898 -4.43E-07
   200 OT LS       0.11E+00    1.0                     -207.0671891552
   201 OT LS       0.17E+00    1.0                     -207.0671892420
   202 OT CG       0.13E+00    1.9     0.00002624      -207.0671893137 -5.24E-07
   203 OT LS       0.67E-01    1.0                     -207.0671892170
   204 OT LS       0.62E-01    1.0                     -207.0671895921
   205 OT CG       0.50E-01    1.9     0.00003339      -207.0671895939 -2.80E-07
   206 OT LS       0.70E-01    1.0                     -207.0671901112
   207 OT LS       0.86E-01    1.0                     -207.0671902015
   208 OT CG       0.69E-01    1.9     0.00002619      -207.0671902259 -6.32E-07
   209 OT LS       0.97E-01    1.0                     -207.0671907360
   210 OT LS       0.19E+00    1.0                     -207.0671908773
   211 OT CG       0.15E+00    1.9     0.00003292      -207.0671910899 -8.64E-07
   212 OT LS       0.77E-01    1.0                     -207.0671907205
   213 OT LS       0.66E-01    1.0                     -207.0671915447
   214 OT CG       0.53E-01    1.9     0.00004368      -207.0671915579 -4.68E-07
   215 OT LS       0.74E-01    1.0                     -207.0671924589
   216 OT LS       0.83E-01    1.0                     -207.0671925871
   217 OT CG       0.67E-01    1.9     0.00003431      -207.0671926015 -1.04E-06
   218 OT LS       0.93E-01    1.0                     -207.0671934714
   219 OT LS       0.22E+00    1.0                     -207.0671937304
   220 OT CG       0.17E+00    1.9     0.00004821      -207.0671942705 -1.67E-06
   221 OT LS       0.86E-01    1.0                     -207.0671923075
   222 OT LS       0.63E-01    1.0                     -207.0671951067
   223 OT CG       0.50E-01    1.8     0.00006306      -207.0671952379 -9.67E-07
   224 OT LS       0.71E-01    1.0                     -207.0671972197
   225 OT LS       0.10E+00    1.0                     -207.0671976475
   226 OT CG       0.82E-01    1.9     0.00006438      -207.0671978981 -2.66E-06
   227 OT LS       0.11E+00    1.0                     -207.0672013463
   228 OT LS       0.18E+00    1.0                     -207.0672021636
   229 OT CG       0.14E+00    1.9     0.00009737      -207.0672027836 -4.89E-06
   230 OT LS       0.20E+00    1.0                     -207.0672041888
   231 OT LS       0.77E-01    1.0                     -207.0671933838
   232 OT CG       0.62E-01    1.9     0.00014571      -207.0672078416 -5.06E-06
   233 OT LS       0.87E-01    1.0                     -207.0672188550
   234 OT LS       0.70E-01    1.0                     -207.0672183412
   235 OT CG       0.56E-01    1.9     0.00012766      -207.0672190640 -1.12E-05
   236 OT LS       0.78E-01    1.0                     -207.0672301258
   237 OT LS       0.31E+00    1.0                     -207.0672339675
   238 OT CG       0.25E+00    1.9     0.00025678      -207.0672431132 -2.40E-05
   239 OT LS       0.13E+00    1.0                     -207.0657220680
   240 OT LS       0.45E-01    1.0                     -207.0670765925
   241 OT CG       0.36E-01    1.9     0.00032204      -207.0672431633 -5.01E-08
   242 OT LS       0.50E-01    1.0                     -207.0672779600
   243 OT LS       0.13E+00    1.0                     -207.0672888731
   244 OT CG       0.11E+00    1.9     0.00041144      -207.0673194900 -7.63E-05
   245 OT LS       0.15E+00    1.0                     -207.0673565474
   246 OT LS       0.64E-01    1.0                     -207.0672568182
   247 OT CG       0.51E-01    1.9     0.00052127      -207.0673905523 -7.11E-05
   248 OT LS       0.71E-01    1.0                     -207.0675409095
   249 OT LS       0.16E+00    1.0                     -207.0675852497
   250 OT CG       0.13E+00    1.9     0.00059632      -207.0676337957 -2.43E-04
   251 OT LS       0.64E-01    1.0                     -207.0669190458
   252 OT LS       0.31E-01    1.0                     -207.0676226347
   253 OT CG       0.25E-01    1.9     0.00059372      -207.0676830073 -4.92E-05
   254 OT LS       0.35E-01    1.0                     -207.0677859238
   255 OT LS       0.12E+00    1.0                     -207.0678200879
   256 OT CG       0.92E-01    1.9     0.00053894      -207.0679496874 -2.67E-04
   257 OT LS       0.13E+00    1.0                     -207.0681077842
   258 OT LS       0.84E-01    1.0                     -207.0680631142
   259 OT CG       0.67E-01    1.9     0.00073419      -207.0681093524 -1.60E-04
   260 OT LS       0.94E-01    1.0                     -207.0682775733
   261 OT LS       0.52E-01    1.0                     -207.0681737955
   262 OT CG       0.42E-01    1.9     0.00044924      -207.0682929664 -1.84E-04
   263 OT LS       0.58E-01    1.0                     -207.0683865235
   264 OT LS       0.14E+00    1.0                     -207.0684147321
   265 OT CG       0.11E+00    1.9     0.00038284      -207.0684769298 -1.84E-04
   266 OT LS       0.16E+00    1.0                     -207.0686047910
   267 OT LS       0.14E+00    1.0                     -207.0686077316
   268 OT CG       0.11E+00    1.9     0.00035577      -207.0686098652 -1.33E-04
   269 OT LS       0.15E+00    1.0                     -207.0686376979
   270 OT LS       0.65E-01    1.0                     -207.0685615044
   271 OT CG       0.52E-01    1.9     0.00045006      -207.0686639578 -5.41E-05
   272 OT LS       0.73E-01    1.0                     -207.0687517714
   273 OT LS       0.71E-01    1.0                     -207.0687585572
   274 OT CG       0.57E-01    1.9     0.00032487      -207.0687586101 -9.47E-05
   275 OT LS       0.80E-01    1.0                     -207.0688231734
   276 OT LS       0.16E+00    1.0                     -207.0688409718
   277 OT CG       0.13E+00    1.9     0.00033814      -207.0688670868 -1.08E-04
   278 OT LS       0.18E+00    1.0                     -207.0689891074
   279 OT LS       0.18E+00    1.0                     -207.0690011345
   280 OT CG       0.14E+00    1.8     0.00040404      -207.0690011898 -1.34E-04
   281 OT LS       0.20E+00    1.0                     -207.0690045866
   282 OT LS       0.73E-01    1.0                     -207.0688359041
   283 OT CG       0.58E-01    1.8     0.00054824      -207.0690788025 -7.76E-05
   284 OT LS       0.81E-01    1.0                     -207.0692165528
   285 OT LS       0.73E-01    1.0                     -207.0692206081
   286 OT CG       0.58E-01    1.9     0.00042470      -207.0692225190 -1.44E-04
   287 OT LS       0.82E-01    1.0                     -207.0693376642
   288 OT LS       0.18E+00    1.0                     -207.0693709834
   289 OT CG       0.14E+00    1.9     0.00044623      -207.0694307647 -2.08E-04
   290 OT LS       0.20E+00    1.0                     -207.0696380155
   291 OT LS       0.16E+00    1.0                     -207.0696294116
   292 OT CG       0.13E+00    1.9     0.00053835      -207.0696411175 -2.10E-04
   293 OT LS       0.64E-01    1.0                     -207.0696001196
   294 OT LS       0.59E-01    1.0                     -207.0697532659
   295 OT CG       0.47E-01    1.9     0.00064271      -207.0697540251 -1.13E-04
   296 OT LS       0.66E-01    1.0                     -207.0699399188
   297 OT LS       0.86E-01    1.0                     -207.0699744834
   298 OT CG       0.68E-01    1.9     0.00051404      -207.0699861059 -2.32E-04
   299 OT LS       0.96E-01    1.0                     -207.0701778489
   300 OT LS       0.18E+00    1.0                     -207.0702291665

  Leaving inner SCF loop after reaching   300 steps.


  Electronic density on regular grids:        -84.0000000240       -0.0000000240
  Core density on regular grids:               82.9999999863       -0.0000000137
  Total charge density on r-space grids:       -1.0000000377
  Total charge density g-space grids:          -1.0000000377

  Overlap energy of the core charge distribution:               0.00005723428809
  Self energy of the core charge distribution:               -362.95665714171525
  Core Hamiltonian energy:                                    109.01616077291477
  Hartree energy:                                              85.39055066614901
  Exchange-correlation energy:                                -38.52034069812821

  Total energy:                                              -207.07022916649163

  outer SCF iter =    1 RMS gradient =   0.51E-03 energy =       -207.0702291665

  ----------------------------------- OT ---------------------------------------
  Minimizer      : CG                  : conjugate gradient
  Preconditioner : FULL_ALL            : diagonalization, state selective
  Precond_solver : DEFAULT
  Line search    : 3PNT                : 3 energies
  stepsize       :    0.15000000                  energy_gap     :    0.08000000
  eps_taylor     :   0.10000E-15                  max_taylor     :             4
  ----------------------------------- OT ---------------------------------------

  Step     Update method      Time    Convergence         Total energy    Change
  ------------------------------------------------------------------------------
     1 OT CG       0.12E+00    2.9     0.00074032      -207.0702919008 -3.06E-04
     2 OT LS       0.17E+00    1.0                     -207.0707997464
     3 OT LS       0.15E+00    1.0                     -207.0708050042
     4 OT CG       0.12E+00    1.9     0.00110361      -207.0708166081 -5.25E-04
     5 OT LS       0.58E-01    1.0                     -207.0693263659
     6 OT LS       0.33E-01    1.0                     -207.0709106497
     7 OT CG       0.26E-01    1.9     0.00075655      -207.0710761434 -2.60E-04
     8 OT LS       0.36E-01    1.0                     -207.0712295039
     9 OT LS       0.61E-01    1.0                     -207.0712673871
    10 OT CG       0.49E-01    1.9     0.00037391      -207.0713034177 -2.27E-04
    11 OT LS       0.68E-01    1.0                     -207.0713817457
    12 OT LS       0.21E+00    1.0                     -207.0714073189
    13 OT CG       0.17E+00    1.9     0.00059771      -207.0714949427 -1.92E-04
    14 OT LS       0.23E+00    1.0                     -207.0718541233
    15 OT LS       0.15E+00    1.0                     -207.0717442004
    16 OT CG       0.12E+00    1.8     0.00081810      -207.0718581280 -3.63E-04
    17 OT LS       0.17E+00    1.0                     -207.0722619161
    18 OT LS       0.95E-01    1.0                     -207.0720365228
    19 OT CG       0.76E-01    1.8     0.00124935      -207.0722893071 -4.31E-04
    20 OT LS       0.38E-01    1.0                     -207.0722422896
    21 OT LS       0.37E-01    1.0                     -207.0726757007
    22 OT CG       0.30E-01    1.9     0.00070373      -207.0726758644 -3.87E-04
    23 OT LS       0.41E-01    1.0                     -207.0728510368
    24 OT LS       0.16E+00    1.0                     -207.0729112751
    25 OT CG       0.13E+00    1.8     0.00074177      -207.0732160820 -5.40E-04
    26 OT LS       0.65E-01    1.0                     -207.0730118840
    27 OT LS       0.54E-01    1.0                     -207.0734113169
    28 OT CG       0.43E-01    1.9     0.00080381      -207.0734193459 -2.03E-04
    29 OT LS       0.60E-01    1.0                     -207.0736314638
    30 OT LS       0.51E-01    1.0                     -207.0736289161
    31 OT CG       0.41E-01    1.9     0.00065967      -207.0736365412 -2.17E-04
    32 OT LS       0.57E-01    1.0                     -207.0737975592
    33 OT LS       0.68E-01    1.0                     -207.0738233888
    34 OT CG       0.54E-01    1.9     0.00030564      -207.0738286511 -1.92E-04
    35 OT LS       0.76E-01    1.0                     -207.0738796065
    36 OT LS       0.11E+00    1.0                     -207.0738911201
    37 OT CG       0.91E-01    1.9     0.00025708      -207.0738990428 -7.04E-05
    38 OT LS       0.46E-01    1.0                     -207.0738660215
    39 OT LS       0.32E-01    1.0                     -207.0739104748
    40 OT CG       0.26E-01    1.9     0.00020339      -207.0739129287 -1.39E-05
    41 OT LS       0.36E-01    1.0                     -207.0739243022
    42 OT LS       0.70E-01    1.0                     -207.0739274158
    43 OT CG       0.56E-01    1.8     0.00010959      -207.0739318658 -1.89E-05
    44 OT LS       0.78E-01    1.0                     -207.0739386138
    45 OT LS       0.12E+00    1.0                     -207.0739401626
    46 OT CG       0.96E-01    1.9     0.00009676      -207.0739412953 -9.43E-06
    47 OT LS       0.13E+00    1.0                     -207.0739449650
    48 OT LS       0.70E-01    1.0                     -207.0739418849
    49 OT CG       0.56E-01    1.9     0.00010758      -207.0739455730 -4.28E-06
    50 OT LS       0.78E-01    1.0                     -207.0739475008
    51 OT LS       0.36E-01    1.0                     -207.0739446241
    52 OT CG       0.29E-01    1.9     0.00006946      -207.0739483094 -2.74E-06
    53 OT LS       0.40E-01    1.0                     -207.0739497464
    54 OT LS       0.68E-01    1.0                     -207.0739501041
    55 OT CG       0.54E-01    1.9     0.00003577      -207.0739504568 -2.15E-06
    56 OT LS       0.76E-01    1.0                     -207.0739511143
    57 OT LS       0.98E-01    1.0                     -207.0739512352
    58 OT CG       0.78E-01    1.9     0.00002634      -207.0739512748 -8.18E-07
    59 OT LS       0.11E+00    1.0                     -207.0739514379
    60 OT LS       0.51E-01    1.0                     -207.0739511967
    61 OT CG       0.41E-01    1.8     0.00003004      -207.0739515053 -2.30E-07
    62 OT LS       0.57E-01    1.0                     -207.0739517981
    63 OT LS       0.52E-01    1.0                     -207.0739518106
    64 OT CG       0.42E-01    1.9     0.00001522      -207.0739518132 -3.08E-07
    65 OT LS       0.58E-01    1.0                     -207.0739519208
    66 OT LS       0.14E+00    1.0                     -207.0739519533
    67 OT CG       0.11E+00    1.9     0.00001450      -207.0739520255 -2.12E-07
    68 OT LS       0.16E+00    1.0                     -207.0739521151
    69 OT LS       0.79E-01    1.0                     -207.0739520285
    70 OT CG       0.63E-01    1.9     0.00001660      -207.0739521342 -1.09E-07
    71 OT LS       0.88E-01    1.0                     -207.0739522164
    72 OT LS       0.49E-01    1.0                     -207.0739521676
    73 OT CG       0.39E-01    1.9     0.00001798      -207.0739522233 -8.91E-08
    74 OT LS       0.55E-01    1.0                     -207.0739523534
    75 OT LS       0.89E-01    1.0                     -207.0739523846
    76 OT CG       0.71E-01    1.8     0.00001393      -207.0739524114 -1.88E-07
    77 OT LS       0.99E-01    1.0                     -207.0739525602
    78 OT LS       0.20E+00    1.0                     -207.0739526019
    79 OT CG       0.16E+00    1.9     0.00001598      -207.0739526678 -2.56E-07
    80 OT LS       0.81E-01    1.0                     -207.0739525631
    81 OT LS       0.68E-01    1.0                     -207.0739527767
    82 OT CG       0.54E-01    1.9     0.00002151      -207.0739527810 -1.13E-07
    83 OT LS       0.76E-01    1.0                     -207.0739529222
    84 OT LS       0.48E-01    1.0                     -207.0739528743
    85 OT CG       0.38E-01    1.9     0.00001259      -207.0739529250 -1.44E-07
    86 OT LS       0.53E-01    1.0                     -207.0739529901
    87 OT LS       0.11E+00    1.0                     -207.0739530083
    88 OT CG       0.87E-01    1.9     0.00001148      -207.0739530374 -1.12E-07
    89 OT LS       0.12E+00    1.0                     -207.0739531175
    90 OT LS       0.93E-01    1.0                     -207.0739531107
    91 OT CG       0.75E-01    1.9     0.00000986      -207.0739531180 -8.06E-08

  *** SCF run converged in    91 steps ***


  Electronic density on regular grids:        -84.0000000223       -0.0000000223
  Core density on regular grids:               82.9999999863       -0.0000000137
  Total charge density on r-space grids:       -1.0000000360
  Total charge density g-space grids:          -1.0000000360

  Overlap energy of the core charge distribution:               0.00005723428809
  Self energy of the core charge distribution:               -362.95665714171525
  Core Hamiltonian energy:                                    109.05386926058362
  Hartree energy:                                              85.36350288268036
  Exchange-correlation energy:                                -38.53472535379269

  Total energy:                                              -207.07395311795591

  outer SCF iter =    2 RMS gradient =   0.99E-05 energy =       -207.0739531180
  outer SCF loop converged in   2 iterations or  391 steps


 ENERGY| Total FORCE_EVAL ( QS ) energy (a.u.):             -207.073953135005780


 ATOMIC FORCES in [a.u.]

 # Atom   Kind   Element          X              Y              Z
      1      1      Co          0.00067115    -0.00001437     0.03225978
      2      2      B           0.00457930     0.03089459    -0.00104763
      3      2      B           0.00458061    -0.03090107    -0.00104349
      4      2      B          -0.02354975     0.09507806     0.00171478
      5      2      B           0.00626118    -0.00749032    -0.00047414
      6      2      B           0.01788314     0.00001787     0.01524981
      7      2      B           0.00317924    -0.12300765    -0.01397071
      8      2      B           0.00630772     0.00750708    -0.00049661
      9      2      B           0.03473140     0.00246743    -0.00560089
     10      2      B           0.03799734     0.02817280     0.00996607
     11      2      B          -0.05223334     0.03920730    -0.00629274
     12      2      B          -0.02537662     0.00134405     0.00024843
     13      2      B          -0.05219281    -0.03917853    -0.00628008
     14      2      B          -0.02356073    -0.09509420     0.00170974
     15      2      B           0.03473480    -0.00246220    -0.00560007
     16      2      B           0.03804332    -0.02819373     0.00996182
     17      2      B          -0.12350970     0.00000034     0.03046653
     18      2      B          -0.01941185    -0.02582642    -0.00095460
     19      2      B          -0.02533877    -0.00135777     0.00024997
     20      2      B           0.00318812     0.12301759    -0.01397284
     21      2      B          -0.01942648     0.02581628    -0.00096434
     22      2      B           0.08645980    -0.01303285    -0.01462037
     23      2      B           0.08646133     0.01303504    -0.01460480
 SUM OF ATOMIC FORCES           0.00047837    -0.00000068     0.01590361     0.01591080

 Number of electrons:                                                         84
 Number of occupied orbitals:                                                 42
 Number of molecular orbitals:                                                42

 Number of orbital functions:                                                312
 Number of independent orbital functions:                                    312

 Extrapolation method: ASPC


 SCF WAVEFUNCTION OPTIMIZATION

  ----------------------------------- OT ---------------------------------------
  Minimizer      : CG                  : conjugate gradient
  Preconditioner : FULL_ALL            : diagonalization, state selective
  Precond_solver : DEFAULT
  Line search    : 3PNT                : 3 energies
  stepsize       :    0.15000000                  energy_gap     :    0.08000000
  eps_taylor     :   0.10000E-15                  max_taylor     :             4
  ----------------------------------- OT ---------------------------------------

  Step     Update method      Time    Convergence         Total energy    Change
  ------------------------------------------------------------------------------
     1 OT CG       0.12E+00    1.5     0.01108752      -206.9777936804 -2.07E+02
     2 OT LS       0.17E+00    1.0                     -207.0937344288
     3 OT LS       0.15E+00    1.0                     -207.0961172615
     4 OT CG       0.12E+00    1.9     0.00802819      -207.0981891903 -1.20E-01
     5 OT LS       0.17E+00    1.0                     -207.1041824254
     6 OT LS       0.63E-01    1.0                     -207.0536381832
     7 OT CG       0.51E-01    1.9     0.00686363      -207.1249594113 -2.68E-02
     8 OT LS       0.25E-01    1.0                     -207.1224052959
     9 OT LS       0.23E-01    1.0                     -207.1320469859
    10 OT CG       0.19E-01    1.9     0.00279439      -207.1321021030 -7.14E-03
    11 OT LS       0.26E-01    1.0                     -207.1337789942
    12 OT LS       0.79E-01    1.0                     -207.1343245301
    13 OT CG       0.63E-01    1.9     0.00105512      -207.1361399329 -4.04E-03
    14 OT LS       0.89E-01    1.0                     -207.1366807038
    15 OT LS       0.76E-01    1.0                     -207.1366815267
    16 OT CG       0.61E-01    1.9     0.00078706      -207.1366964882 -5.57E-04
    17 OT LS       0.86E-01    1.0                     -207.1369625486
    18 OT LS       0.66E-01    1.0                     -207.1369404626
    19 OT CG       0.53E-01    1.9     0.00053611      -207.1369639992 -2.68E-04
    20 OT LS       0.74E-01    1.0                     -207.1370020267
    21 OT LS       0.33E-01    1.0                     -207.1369273242
    22 OT CG       0.26E-01    1.9     0.00044361      -207.1370254203 -6.14E-05
    23 OT LS       0.37E-01    1.0                     -207.1370788335
    24 OT LS       0.63E-01    1.0                     -207.1370924172
    25 OT CG       0.51E-01    1.9     0.00026186      -207.1371069256 -8.15E-05
    26 OT LS       0.71E-01    1.0                     -207.1371454402
    27 OT LS       0.17E+00    1.0                     -207.1371569622
    28 OT CG       0.13E+00    1.9     0.00016589      -207.1371813281 -7.44E-05
    29 OT LS       0.19E+00    1.0                     -207.1371969776
    30 OT LS       0.99E-01    1.0                     -207.1371852849
    31 OT CG       0.79E-01    1.9     0.00011261      -207.1371990795 -1.78E-05
    32 OT LS       0.11E+00    1.0                     -207.1372029905
    33 OT LS       0.56E-01    1.0                     -207.1371993968
    34 OT CG       0.45E-01    1.9     0.00013463      -207.1372037520 -4.67E-06
    35 OT LS       0.63E-01    1.0                     -207.1372081911
    36 OT LS       0.38E-01    1.0                     -207.1372064724
    37 OT CG       0.31E-01    1.9     0.00005588      -207.1372083213 -4.57E-06
    38 OT LS       0.43E-01    1.0                     -207.1372093884
    39 OT LS       0.10E+00    1.0                     -207.1372097074
    40 OT CG       0.81E-01    1.9     0.00004638      -207.1372103821 -2.06E-06
    41 OT LS       0.11E+00    1.0                     -207.1372111746
    42 OT LS       0.62E-01    1.0                     -207.1372106630
    43 OT CG       0.50E-01    1.9     0.00002103      -207.1372112543 -8.72E-07
    44 OT LS       0.69E-01    1.0                     -207.1372114726
    45 OT LS       0.10E+00    1.0                     -207.1372115216
    46 OT CG       0.83E-01    1.9     0.00001789      -207.1372115544 -3.00E-07
    47 OT LS       0.41E-01    1.0                     -207.1372114516
    48 OT LS       0.32E-01    1.0                     -207.1372116157
    49 OT CG       0.26E-01    1.9     0.00001415      -207.1372116215 -6.71E-08
    50 OT LS       0.36E-01    1.0                     -207.1372116718
    51 OT LS       0.51E-01    1.0                     -207.1372116825
    52 OT CG       0.41E-01    1.8     0.00000583      -207.1372116884 -6.68E-08

  *** SCF run converged in    52 steps ***


  Electronic density on regular grids:        -83.9999999685        0.0000000315
  Core density on regular grids:               82.9999999863       -0.0000000137
  Total charge density on r-space grids:       -0.9999999823
  Total charge density g-space grids:          -0.9999999823

  Overlap energy of the core charge distribution:               0.00002502462429
  Self energy of the core charge distribution:               -362.95665714171525
  Core Hamiltonian energy:                                    108.33495175896698
  Hartree energy:                                              85.81307547932839
  Exchange-correlation energy:                                -38.32860680959080

  Total energy:                                              -207.13721168838643

  outer SCF iter =    1 RMS gradient =   0.58E-05 energy =       -207.1372116884
  outer SCF loop converged in   1 iterations or   52 steps


 ENERGY| Total FORCE_EVAL ( QS ) energy (a.u.):             -207.137211703249932


 ATOMIC FORCES in [a.u.]

 # Atom   Kind   Element          X              Y              Z
      1      1      Co         -0.00770804    -0.00006244    -0.00761580
      2      2      B          -0.01099301     0.00073133    -0.00142708
      3      2      B          -0.01096842    -0.00075472    -0.00138491
      4      2      B           0.05340298    -0.00835479    -0.00028424
      5      2      B           0.00794989     0.00290373    -0.00264355
      6      2      B          -0.01168211    -0.00002648    -0.01229654
      7      2      B          -0.00459520     0.08187815     0.00919304
      8      2      B           0.00793194    -0.00290703    -0.00267302
      9      2      B          -0.00289392     0.00746280     0.00390689
     10      2      B          -0.03673573    -0.00164665    -0.00302305
     11      2      B           0.00351700     0.00976772     0.00211342
     12      2      B           0.00671444     0.00166535    -0.00427745
     13      2      B           0.00351185    -0.00976998     0.00214779
     14      2      B           0.05342791     0.00830510    -0.00029626
     15      2      B          -0.00288964    -0.00744000     0.00394152
     16      2      B          -0.03677697     0.00164707    -0.00303719
     17      2      B           0.05978292     0.00003058    -0.01059559
     18      2      B           0.01450100     0.03330251     0.00010260
     19      2      B           0.00669569    -0.00165378    -0.00427163
     20      2      B          -0.00459670    -0.08190582     0.00915420
     21      2      B           0.01449231    -0.03327477     0.00010224
     22      2      B          -0.05175999     0.00092916     0.00713604
     23      2      B          -0.05175917    -0.00092784     0.00717646
 SUM OF ATOMIC FORCES          -0.00143099    -0.00010079    -0.00885211     0.00896759

 --------  Informations at step =     1 ------------
  Optimization Method        =                LBFGS
  Total Energy               =      -207.1372117032
  Real energy change         =        -0.0632585682
  Decrease in energy         =                  YES
  Used time                  =              580.117

  Convergence check :
  Max. step size             =         0.3817750625
  Conv. limit for step size  =         0.0030000000
  Convergence in step size   =                   NO
  RMS step size              =         0.1203858531
  Conv. limit for RMS step   =         0.0015000000
  Convergence in RMS step    =                   NO
  Max. gradient              =         0.0819058172
  Conv. limit for gradients  =         0.0010000000
  Conv. for gradients        =                   NO
  RMS gradient               =         0.0226194417
  Conv. limit for RMS grad.  =         0.0006000000
  Conv. for gradients        =                   NO
 ---------------------------------------------------

 --------------------------
 OPTIMIZATION STEP:      2
 --------------------------

 Number of electrons:                                                         84
 Number of occupied orbitals:                                                 42
 Number of molecular orbitals:                                                42

 Number of orbital functions:                                                312
 Number of independent orbital functions:                                    312

 Extrapolation method: ASPC


 SCF WAVEFUNCTION OPTIMIZATION

  ----------------------------------- OT ---------------------------------------
  Minimizer      : CG                  : conjugate gradient
  Preconditioner : FULL_ALL            : diagonalization, state selective
  Precond_solver : DEFAULT
  Line search    : 3PNT                : 3 energies
  stepsize       :    0.15000000                  energy_gap     :    0.08000000
  eps_taylor     :   0.10000E-15                  max_taylor     :             4
  ----------------------------------- OT ---------------------------------------

  Step     Update method      Time    Convergence         Total energy    Change
  ------------------------------------------------------------------------------
     1 OT CG       0.12E+00    1.5     0.01330085      -206.9435932289 -2.07E+02
     2 OT LS       0.17E+00    1.0                     -207.1151423838
     3 OT LS       0.15E+00    1.0                     -207.1226304334
     4 OT CG       0.12E+00    1.9     0.00883650      -207.1240917290 -1.80E-01
     5 OT LS       0.17E+00    1.0                     -207.1488849765
     6 OT LS       0.78E-01    1.0                     -207.1058554097
     7 OT CG       0.62E-01    1.8     0.00483909      -207.1627544333 -3.87E-02
     8 OT LS       0.87E-01    1.0                     -207.1666506429
     9 OT LS       0.39E-01    1.0                     -207.1599906598
    10 OT CG       0.32E-01    1.9     0.00373097      -207.1686562559 -5.90E-03
    11 OT LS       0.44E-01    1.0                     -207.1715960642
    12 OT LS       0.32E-01    1.0                     -207.1711985438
    13 OT CG       0.26E-01    1.9     0.00195469      -207.1715976516 -2.94E-03
    14 OT LS       0.36E-01    1.0                     -207.1726403397
    15 OT LS       0.67E-01    1.0                     -207.1729167921
    16 OT CG       0.53E-01    1.9     0.00099004      -207.1732634195 -1.67E-03
    17 OT LS       0.75E-01    1.0                     -207.1736978220
    18 OT LS       0.73E-01    1.0                     -207.1737323282
    19 OT CG       0.58E-01    1.9     0.00080060      -207.1737325063 -4.69E-04
    20 OT LS       0.29E-01    1.0                     -207.1736978687
    21 OT LS       0.27E-01    1.0                     -207.1738464319
    22 OT CG       0.22E-01    1.9     0.00050399      -207.1738470146 -1.15E-04
    23 OT LS       0.31E-01    1.0                     -207.1739097671
    24 OT LS       0.80E-01    1.0                     -207.1739293206
    25 OT CG       0.64E-01    1.9     0.00031530      -207.1739802935 -1.33E-04
    26 OT LS       0.90E-01    1.0                     -207.1740417206
    27 OT LS       0.12E+00    1.0                     -207.1740538955
    28 OT CG       0.97E-01    1.9     0.00034543      -207.1740591497 -7.89E-05
    29 OT LS       0.48E-01    1.0                     -207.1739817759
    30 OT LS       0.32E-01    1.0                     -207.1740776686
    31 OT CG       0.26E-01    1.9     0.00023319      -207.1740841965 -2.50E-05
    32 OT LS       0.36E-01    1.0                     -207.1740970663
    33 OT LS       0.43E-01    1.0                     -207.1740991938
    34 OT CG       0.35E-01    1.9     0.00013789      -207.1740996571 -1.55E-05
    35 OT LS       0.49E-01    1.0                     -207.1741064939
    36 OT LS       0.83E-01    1.0                     -207.1741082147
    37 OT CG       0.66E-01    1.9     0.00008745      -207.1741099823 -1.03E-05
    38 OT LS       0.93E-01    1.0                     -207.1741137860
    39 OT LS       0.78E-01    1.0                     -207.1741137168
    40 OT CG       0.62E-01    1.9     0.00010307      -207.1741138677 -3.89E-06
    41 OT LS       0.31E-01    1.0                     -207.1741131467
    42 OT LS       0.29E-01    1.0                     -207.1741158455
    43 OT CG       0.23E-01    1.9     0.00004535      -207.1741158595 -1.99E-06
    44 OT LS       0.32E-01    1.0                     -207.1741164010
    45 OT LS       0.93E-01    1.0                     -207.1741165753
    46 OT CG       0.75E-01    1.9     0.00002660      -207.1741171190 -1.26E-06
    47 OT LS       0.10E+00    1.0                     -207.1741173875
    48 OT LS       0.61E-01    1.0                     -207.1741172569
    49 OT CG       0.49E-01    1.9     0.00002447      -207.1741174019 -2.83E-07
    50 OT LS       0.68E-01    1.0                     -207.1741175142
    51 OT LS       0.35E-01    1.0                     -207.1741174075
    52 OT CG       0.28E-01    1.9     0.00001713      -207.1741175374 -1.35E-07
    53 OT LS       0.39E-01    1.0                     -207.1741176143
    54 OT LS       0.50E-01    1.0                     -207.1741176287
    55 OT CG       0.40E-01    1.9     0.00000839      -207.1741176338 -9.64E-08

  *** SCF run converged in    55 steps ***


  Electronic density on regular grids:        -83.9999999764        0.0000000236
  Core density on regular grids:               82.9999999862       -0.0000000138
  Total charge density on r-space grids:       -0.9999999902
  Total charge density g-space grids:          -0.9999999902

  Overlap energy of the core charge distribution:               0.00001697262517
  Self energy of the core charge distribution:               -362.95665714171525
  Core Hamiltonian energy:                                    108.32451849650226
  Hartree energy:                                              85.79757882976668
  Exchange-correlation energy:                                -38.33957479093589

  Total energy:                                              -207.17411763375702

  outer SCF iter =    1 RMS gradient =   0.84E-05 energy =       -207.1741176338
  outer SCF loop converged in   1 iterations or   55 steps


 ENERGY| Total FORCE_EVAL ( QS ) energy (a.u.):             -207.174117661694993


 ATOMIC FORCES in [a.u.]

 # Atom   Kind   Element          X              Y              Z
      1      1      Co          0.00859576    -0.00020823    -0.02309483
      2      2      B           0.00479246     0.00363301    -0.00274081
      3      2      B           0.00481521    -0.00365931    -0.00269409
      4      2      B           0.01855599     0.01320437     0.00012405
      5      2      B           0.00412424     0.00024822    -0.00291923
      6      2      B          -0.00266130    -0.00000513    -0.00332265
      7      2      B           0.00403635     0.01939211    -0.00017388
      8      2      B           0.00413696    -0.00025970    -0.00297651
      9      2      B           0.00331330     0.00450755     0.00171414
     10      2      B          -0.01313703     0.00459629     0.00051030
     11      2      B           0.00003408     0.00494345     0.00052963
     12      2      B           0.00057845     0.00196712    -0.00199456
     13      2      B           0.00010566    -0.00489522     0.00058601
     14      2      B           0.01857934    -0.01326520     0.00010527
     15      2      B           0.00331828    -0.00447130     0.00175687
     16      2      B          -0.01311385    -0.00463149     0.00049983
     17      2      B           0.01597000     0.00001504    -0.00288048
     18      2      B          -0.00428579    -0.00736015     0.00261907
     19      2      B           0.00058224    -0.00196355    -0.00199119
     20      2      B           0.00405606    -0.01941845    -0.00022576
     21      2      B          -0.00431839     0.00736197     0.00260929
     22      2      B          -0.02410658     0.00438450     0.00339744
     23      2      B          -0.02409379    -0.00438874     0.00345383
 SUM OF ATOMIC FORCES           0.00987765    -0.00027284    -0.02710828     0.02885309

 --------  Informations at step =     2 ------------
  Optimization Method        =                LBFGS
  Total Energy               =      -207.1741176617
  Real energy change         =        -0.0369059584
  Decrease in energy         =                  YES
  Used time                  =               74.229

  Convergence check :
  Max. step size             =         0.1392725339
  Conv. limit for step size  =         0.0030000000
  Convergence in step size   =                   NO
  RMS step size              =         0.0380580896
  Conv. limit for RMS step   =         0.0015000000
  Convergence in RMS step    =                   NO
  Max. gradient              =         0.0241065836
  Conv. limit for gradients  =         0.0010000000
  Conv. for gradients        =                   NO
  RMS gradient               =         0.0083037642
  Conv. limit for RMS grad.  =         0.0006000000
  Conv. for gradients        =                   NO
 ---------------------------------------------------

 --------------------------
 OPTIMIZATION STEP:      3
 --------------------------

 Number of electrons:                                                         84
 Number of occupied orbitals:                                                 42
 Number of molecular orbitals:                                                42

 Number of orbital functions:                                                312
 Number of independent orbital functions:                                    312

 Extrapolation method: ASPC


 SCF WAVEFUNCTION OPTIMIZATION

  ----------------------------------- OT ---------------------------------------
  Minimizer      : CG                  : conjugate gradient
  Preconditioner : FULL_ALL            : diagonalization, state selective
  Precond_solver : DEFAULT
  Line search    : 3PNT                : 3 energies
  stepsize       :    0.15000000                  energy_gap     :    0.08000000
  eps_taylor     :   0.10000E-15                  max_taylor     :             4
  ----------------------------------- OT ---------------------------------------

  Step     Update method      Time    Convergence         Total energy    Change
  ------------------------------------------------------------------------------
     1 OT CG       0.12E+00    1.5     0.00921126      -207.0779398390 -2.07E+02
     2 OT LS       0.17E+00    1.0                     -207.1511393733
     3 OT LS       0.13E+00    1.0                     -207.1459093616
     4 OT CG       0.11E+00    1.9     0.00729852      -207.1517023277 -7.38E-02
     5 OT LS       0.53E-01    1.0                     -207.1308419969
     6 OT LS       0.41E-01    1.0                     -207.1651866915
     7 OT CG       0.33E-01    1.9     0.00669797      -207.1662550838 -1.46E-02
     8 OT LS       0.46E-01    1.0                     -207.1774012807
     9 OT LS       0.38E-01    1.0                     -207.1772122303
    10 OT CG       0.31E-01    1.9     0.00219627      -207.1776447190 -1.14E-02
    11 OT LS       0.43E-01    1.0                     -207.1792594500
    12 OT LS       0.90E-01    1.0                     -207.1797199923
    13 OT CG       0.72E-01    1.9     0.00088225      -207.1805035900 -2.86E-03
    14 OT LS       0.10E+00    1.0                     -207.1809554881
    15 OT LS       0.93E-01    1.0                     -207.1809762677
    16 OT CG       0.75E-01    1.9     0.00080278      -207.1809796546 -4.76E-04
    17 OT LS       0.37E-01    1.0                     -207.1806941647
    18 OT LS       0.26E-01    1.0                     -207.1810665459
    19 OT CG       0.21E-01    1.8     0.00045088      -207.1810886109 -1.09E-04
    20 OT LS       0.29E-01    1.0                     -207.1811367269
    21 OT LS       0.83E-01    1.0                     -207.1811521448
    22 OT CG       0.66E-01    1.9     0.00025986      -207.1811990231 -1.10E-04
    23 OT LS       0.93E-01    1.0                     -207.1812346882
    24 OT LS       0.85E-01    1.0                     -207.1812361161
    25 OT CG       0.68E-01    1.9     0.00024053      -207.1812364572 -3.74E-05
    26 OT LS       0.95E-01    1.0                     -207.1812683886
    27 OT LS       0.89E-01    1.0                     -207.1812702690
    28 OT CG       0.72E-01    1.9     0.00019547      -207.1812703914 -3.39E-05
    29 OT LS       0.36E-01    1.0                     -207.1812608751
    30 OT LS       0.28E-01    1.0                     -207.1812769769
    31 OT CG       0.23E-01    1.9     0.00012893      -207.1812774745 -7.08E-06
    32 OT LS       0.32E-01    1.0                     -207.1812815777
    33 OT LS       0.67E-01    1.0                     -207.1812827562
    34 OT CG       0.54E-01    1.8     0.00005931      -207.1812848265 -7.35E-06
    35 OT LS       0.76E-01    1.0                     -207.1812867148
    36 OT LS       0.11E+00    1.0                     -207.1812871338
    37 OT CG       0.89E-01    1.9     0.00003763      -207.1812874050 -2.58E-06
    38 OT LS       0.13E+00    1.0                     -207.1812879805
    39 OT LS       0.68E-01    1.0                     -207.1812876032
    40 OT CG       0.55E-01    1.9     0.00004634      -207.1812880402 -6.35E-07
    41 OT LS       0.77E-01    1.0                     -207.1812883496
    42 OT LS       0.34E-01    1.0                     -207.1812877835
    43 OT CG       0.27E-01    1.9     0.00001958      -207.1812885223 -4.82E-07
    44 OT LS       0.38E-01    1.0                     -207.1812886364
    45 OT LS       0.80E-01    1.0                     -207.1812886688
    46 OT CG       0.64E-01    1.8     0.00001183      -207.1812887230 -2.01E-07
    47 OT LS       0.89E-01    1.0                     -207.1812887902
    48 OT LS       0.75E-01    1.0                     -207.1812887892
    49 OT CG       0.60E-01    1.9     0.00000848      -207.1812887917 -6.88E-08

  *** SCF run converged in    49 steps ***


  Electronic density on regular grids:        -84.0000000277       -0.0000000277
  Core density on regular grids:               82.9999999862       -0.0000000138
  Total charge density on r-space grids:       -1.0000000415
  Total charge density g-space grids:          -1.0000000415

  Overlap energy of the core charge distribution:               0.00001791529448
  Self energy of the core charge distribution:               -362.95665714171525
  Core Hamiltonian energy:                                    108.41879785883856
  Hartree energy:                                              85.73011667246368
  Exchange-correlation energy:                                -38.37356409663025

  Total energy:                                              -207.18128879174881

  outer SCF iter =    1 RMS gradient =   0.85E-05 energy =       -207.1812887917
  outer SCF loop converged in   1 iterations or   49 steps


 ENERGY| Total FORCE_EVAL ( QS ) energy (a.u.):             -207.181288816047640


 ATOMIC FORCES in [a.u.]

 # Atom   Kind   Element          X              Y              Z
      1      1      Co         -0.01981043    -0.00111912     0.01400951
      2      2      B           0.00960196     0.00024828    -0.00413777
      3      2      B           0.00958596    -0.00028758    -0.00407677
      4      2      B          -0.00068743     0.01733443     0.00103240
      5      2      B           0.00383104    -0.00199024    -0.00313835
      6      2      B           0.00598658    -0.00000941     0.00104960
      7      2      B           0.00306275    -0.00486098    -0.00334499
      8      2      B           0.00383655     0.00195954    -0.00321765
      9      2      B           0.00488511     0.00317854    -0.00015609
     10      2      B          -0.00043592     0.00404386     0.00097095
     11      2      B           0.00026850     0.00254577     0.00008235
     12      2      B          -0.01014894    -0.00244749    -0.00115757
     13      2      B           0.00032177    -0.00253821     0.00013950
     14      2      B          -0.00063644    -0.01739152     0.00100722
     15      2      B           0.00488381    -0.00319159    -0.00008920
     16      2      B          -0.00043746    -0.00407771     0.00095256
     17      2      B          -0.01136661     0.00001247     0.00148342
     18      2      B          -0.00297937    -0.00914189     0.00271522
     19      2      B          -0.01015261     0.00242191    -0.00116264
     20      2      B           0.00311090     0.00483287    -0.00340780
     21      2      B          -0.00303416     0.00912246     0.00269525
     22      2      B          -0.00055076    -0.00006460     0.00002407
     23      2      B          -0.00053295     0.00005676     0.00009680
 SUM OF ATOMIC FORCES          -0.01139813    -0.00136347     0.00237003     0.01172150

 --------  Informations at step =     3 ------------
  Optimization Method        =                LBFGS
  Total Energy               =      -207.1812888160
  Real energy change         =        -0.0071711544
  Decrease in energy         =                  YES
  Used time                  =               65.334

  Convergence check :
  Max. step size             =         0.0713616338
  Conv. limit for step size  =         0.0030000000
  Convergence in step size   =                   NO
  RMS step size              =         0.0239154081
  Conv. limit for RMS step   =         0.0015000000
  Convergence in RMS step    =                   NO
  Max. gradient              =         0.0198104276
  Conv. limit for gradients  =         0.0010000000
  Conv. for gradients        =                   NO
  RMS gradient               =         0.0057301068
  Conv. limit for RMS grad.  =         0.0006000000
  Conv. for gradients        =                   NO
 ---------------------------------------------------

 --------------------------
 OPTIMIZATION STEP:      4
 --------------------------

 Number of electrons:                                                         84
 Number of occupied orbitals:                                                 42
 Number of molecular orbitals:                                                42

 Number of orbital functions:                                                312
 Number of independent orbital functions:                                    312

 Extrapolation method: ASPC


 SCF WAVEFUNCTION OPTIMIZATION

  ----------------------------------- OT ---------------------------------------
  Minimizer      : CG                  : conjugate gradient
  Preconditioner : FULL_ALL            : diagonalization, state selective
  Precond_solver : DEFAULT
  Line search    : 3PNT                : 3 energies
  stepsize       :    0.15000000                  energy_gap     :    0.08000000
  eps_taylor     :   0.10000E-15                  max_taylor     :             4
  ----------------------------------- OT ---------------------------------------

  Step     Update method      Time    Convergence         Total energy    Change
  ------------------------------------------------------------------------------
     1 OT CG       0.12E+00    1.5     0.00336506      -207.1694798671 -2.07E+02
     2 OT LS       0.17E+00    1.0                     -207.1795591273
     3 OT LS       0.14E+00    1.0                     -207.1792378230
     4 OT CG       0.11E+00    1.9     0.00376571      -207.1797313724 -1.03E-02
     5 OT LS       0.55E-01    1.0                     -207.1549005240
     6 OT LS       0.24E-01    1.0                     -207.1784535478
     7 OT CG       0.20E-01    1.9     0.00195215      -207.1819889075 -2.26E-03
     8 OT LS       0.27E-01    1.0                     -207.1828233125
     9 OT LS       0.68E-01    1.0                     -207.1830791100
    10 OT CG       0.55E-01    1.9     0.00078919      -207.1836924633 -1.70E-03
    11 OT LS       0.76E-01    1.0                     -207.1839908815
    12 OT LS       0.82E-01    1.0                     -207.1840273919
    13 OT CG       0.66E-01    1.9     0.00038023      -207.1840291288 -3.37E-04
    14 OT LS       0.92E-01    1.0                     -207.1840970960
    15 OT LS       0.72E-01    1.0                     -207.1840923908
    16 OT CG       0.58E-01    1.9     0.00027684      -207.1840976311 -6.85E-05
    17 OT LS       0.81E-01    1.0                     -207.1841239782
    18 OT LS       0.53E-01    1.0                     -207.1841167897
    19 OT CG       0.42E-01    1.9     0.00024998      -207.1841242024 -2.66E-05
    20 OT LS       0.59E-01    1.0                     -207.1841344795
    21 OT LS       0.30E-01    1.0                     -207.1841249056
    22 OT CG       0.24E-01    1.9     0.00012766      -207.1841365275 -1.23E-05
    23 OT LS       0.34E-01    1.0                     -207.1841410830
    24 OT LS       0.11E+00    1.0                     -207.1841425761
    25 OT CG       0.84E-01    1.9     0.00008687      -207.1841477816 -1.13E-05
    26 OT LS       0.12E+00    1.0                     -207.1841539226
    27 OT LS       0.16E+00    1.0                     -207.1841551501
    28 OT CG       0.13E+00    1.9     0.00004284      -207.1841556971 -7.92E-06
    29 OT LS       0.18E+00    1.0                     -207.1841565693
    30 OT LS       0.89E-01    1.0                     -207.1841556816
    31 OT CG       0.71E-01    1.9     0.00004005      -207.1841567713 -1.07E-06
    32 OT LS       0.36E-01    1.0                     -207.1841561013
    33 OT LS       0.25E-01    1.0                     -207.1841569791
    34 OT CG       0.20E-01    1.9     0.00002097      -207.1841570308 -2.60E-07
    35 OT LS       0.28E-01    1.0                     -207.1841571328
    36 OT LS       0.95E-01    1.0                     -207.1841571670
    37 OT CG       0.76E-01    1.9     0.00001174      -207.1841573037 -2.73E-07
    38 OT LS       0.11E+00    1.0                     -207.1841573860
    39 OT LS       0.95E-01    1.0                     -207.1841573882
    40 OT CG       0.76E-01    1.9     0.00000925      -207.1841573894 -8.57E-08

  *** SCF run converged in    40 steps ***


  Electronic density on regular grids:        -84.0000000202       -0.0000000202
  Core density on regular grids:               82.9999999862       -0.0000000138
  Total charge density on r-space grids:       -1.0000000339
  Total charge density g-space grids:          -1.0000000339

  Overlap energy of the core charge distribution:               0.00001853239984
  Self energy of the core charge distribution:               -362.95665714171525
  Core Hamiltonian energy:                                    108.43035476720281
  Hartree energy:                                              85.72016740817983
  Exchange-correlation energy:                                -38.37804095550103

  Total energy:                                              -207.18415738943381

  outer SCF iter =    1 RMS gradient =   0.92E-05 energy =       -207.1841573894
  outer SCF loop converged in   1 iterations or   40 steps


 ENERGY| Total FORCE_EVAL ( QS ) energy (a.u.):             -207.184157425130877


 ATOMIC FORCES in [a.u.]

 # Atom   Kind   Element          X              Y              Z
      1      1      Co          0.02549018    -0.00381514    -0.00047749
      2      2      B           0.00267006    -0.00038258    -0.00273894
      3      2      B           0.00255877     0.00026796    -0.00265233
      4      2      B          -0.00154061     0.01057981     0.00128382
      5      2      B           0.00181815    -0.00143927    -0.00277027
      6      2      B           0.00244998    -0.00006526     0.00160198
      7      2      B           0.00171137    -0.00680525    -0.00315478
      8      2      B           0.00171529     0.00125106    -0.00288577
      9      2      B           0.00296739     0.00307030     0.00047608
     10      2      B          -0.00179853     0.00217145     0.00020089
     11      2      B           0.00096411     0.00148464     0.00012628
     12      2      B          -0.00596177    -0.00200137    -0.00100301
     13      2      B           0.00108049    -0.00153660     0.00017483
     14      2      B          -0.00149692    -0.01067578     0.00124288
     15      2      B           0.00296763    -0.00330268     0.00059849
     16      2      B          -0.00179747    -0.00222173     0.00018371
     17      2      B          -0.01071184     0.00002953     0.00106144
     18      2      B          -0.00297219    -0.00803855     0.00208412
     19      2      B          -0.00598614     0.00189587    -0.00104454
     20      2      B           0.00179370     0.00677325    -0.00320408
     21      2      B          -0.00303923     0.00799513     0.00205175
     22      2      B           0.00221040    -0.00132664    -0.00027153
     23      2      B           0.00222366     0.00132072    -0.00018009
 SUM OF ATOMIC FORCES           0.01731649    -0.00477113    -0.00929657     0.02022501

 --------  Informations at step =     4 ------------
  Optimization Method        =                LBFGS
  Total Energy               =      -207.1841574251
  Real energy change         =        -0.0028686091
  Decrease in energy         =                  YES
  Used time                  =               53.966

  Convergence check :
  Max. step size             =         0.0473667900
  Conv. limit for step size  =         0.0030000000
  Convergence in step size   =                   NO
  RMS step size              =         0.0136545802
  Conv. limit for RMS step   =         0.0015000000
  Convergence in RMS step    =                   NO
  Max. gradient              =         0.0254901781
  Conv. limit for gradients  =         0.0010000000
  Conv. for gradients        =                   NO
  RMS gradient               =         0.0046728786
  Conv. limit for RMS grad.  =         0.0006000000
  Conv. for gradients        =                   NO
 ---------------------------------------------------

 --------------------------
 OPTIMIZATION STEP:      5
 --------------------------

[...]
  Conv. limit for gradients  =         0.0010000000
  Conv. in gradients         =                  YES
  RMS gradient               =         0.0002106536
  Conv. limit for RMS grad.  =         0.0006000000
  Conv. in RMS gradients     =                  YES
 ---------------------------------------------------

 *******************************************************************************
 ***                    GEOMETRY OPTIMIZATION COMPLETED                      ***
 *******************************************************************************

                    Reevaluating energy at the minimum

 Number of electrons:                                                         84
 Number of occupied orbitals:                                                 42
 Number of molecular orbitals:                                                42

 Number of orbital functions:                                                312
 Number of independent orbital functions:                                    312

 Extrapolation method: ASPC


 SCF WAVEFUNCTION OPTIMIZATION

  ----------------------------------- OT ---------------------------------------
  Minimizer      : CG                  : conjugate gradient
  Preconditioner : FULL_ALL            : diagonalization, state selective
  Precond_solver : DEFAULT
  Line search    : 3PNT                : 3 energies
  stepsize       :    0.15000000                  energy_gap     :    0.08000000
  eps_taylor     :   0.10000E-15                  max_taylor     :             4
  ----------------------------------- OT ---------------------------------------

  Step     Update method      Time    Convergence         Total energy    Change
  ------------------------------------------------------------------------------
     1 OT CG       0.12E+00    1.5     0.00008353      -207.2095430632 -2.07E+02
     2 OT LS       0.17E+00    1.0                     -207.2095494472
     3 OT LS       0.14E+00    1.0                     -207.2095494342
     4 OT CG       0.11E+00    1.9     0.00013712      -207.2095496240 -6.56E-06
     5 OT LS       0.57E-01    1.0                     -207.2095093251
     6 OT LS       0.24E-01    1.0                     -207.2095466427
     7 OT CG       0.19E-01    1.9     0.00003712      -207.2095525477 -2.92E-06
     8 OT LS       0.27E-01    1.0                     -207.2095528442
     9 OT LS       0.70E-01    1.0                     -207.2095529368
    10 OT CG       0.56E-01    1.9     0.00001367      -207.2095531823 -6.35E-07
    11 OT LS       0.79E-01    1.0                     -207.2095532676
    12 OT LS       0.74E-01    1.0                     -207.2095532724
    13 OT CG       0.59E-01    1.9     0.00000765      -207.2095532727 -9.05E-08

  *** SCF run converged in    13 steps ***


  Electronic density on regular grids:        -84.0000000783       -0.0000000783
  Core density on regular grids:               82.9999999863       -0.0000000137
  Total charge density on r-space grids:       -1.0000000920
  Total charge density g-space grids:          -1.0000000920

  Overlap energy of the core charge distribution:               0.00002109148430
  Self energy of the core charge distribution:               -362.95665714171525
  Core Hamiltonian energy:                                    108.57575366358786
  Hartree energy:                                              85.60078907100511
  Exchange-correlation energy:                                -38.42945995710770

  Total energy:                                              -207.20955327274564

  outer SCF iter =    1 RMS gradient =   0.77E-05 energy =       -207.2095532727
  outer SCF loop converged in   1 iterations or   13 steps


 ENERGY| Total FORCE_EVAL ( QS ) energy (a.u.):             -207.209553272745637


 -------------------------------------------------------------------------------
 -                                                                             -
 -                                DBCSR STATISTICS                             -
 -                                                                             -
 -------------------------------------------------------------------------------
 COUNTER                                    TOTAL       BLAS       SMM       ACC
 flops   26 x   10 x   10                  291200     100.0%      0.0%      0.0%
 flops   26 x   32 x   32                 2981888     100.0%      0.0%      0.0%
 flops   13 x   10 x   10                 3203200     100.0%      0.0%      0.0%
 flops   10 x   10 x   13                13447200     100.0%      0.0%      0.0%
 flops   10 x   10 x   10                20896000     100.0%      0.0%      0.0%
 flops   13 x   32 x   32                32800768     100.0%      0.0%      0.0%
 flops   26 x   26 x   10                35314240     100.0%      0.0%      0.0%
 flops   10 x   10 x   39                40341600     100.0%      0.0%      0.0%
 flops   10 x   32 x   13                43031040     100.0%      0.0%      0.0%
 flops   32 x   10 x   13                43031040     100.0%      0.0%      0.0%
 flops   26 x   10 x   26                53701440     100.0%      0.0%      0.0%
 flops   10 x   10 x   32                66867200     100.0%      0.0%      0.0%
 flops   10 x   32 x   10                66867200     100.0%      0.0%      0.0%
 flops   32 x   10 x   10                66867200     100.0%      0.0%      0.0%
 flops   26 x   26 x   32               113005568     100.0%      0.0%      0.0%
 flops   10 x   32 x   39               129093120     100.0%      0.0%      0.0%
 flops   32 x   10 x   39               129093120     100.0%      0.0%      0.0%
 flops   32 x   32 x   13               137699328     100.0%      0.0%      0.0%
 flops   78 x   10 x   13               150396480     100.0%      0.0%      0.0%
 flops   26 x   32 x   26               171844608     100.0%      0.0%      0.0%
 flops   26 x   13 x   10               194228320     100.0%      0.0%      0.0%
 flops   13 x   26 x   10               194228320     100.0%      0.0%      0.0%
 flops   32 x   32 x   10               213975040     100.0%      0.0%      0.0%
 flops   10 x   32 x   32               213975040     100.0%      0.0%      0.0%
 flops   32 x   10 x   32               213975040     100.0%      0.0%      0.0%
 flops   10 x   10 x   26               268944000     100.0%      0.0%      0.0%
 flops   32 x   32 x   39               413097984     100.0%      0.0%      0.0%
 flops   78 x   10 x   39               451189440     100.0%      0.0%      0.0%
 flops   78 x   10 x   10               475425600     100.0%      0.0%      0.0%
 flops   78 x   32 x   13               481268736     100.0%      0.0%      0.0%
 flops   13 x   10 x   26               590715840     100.0%      0.0%      0.0%
 flops   26 x   10 x   13               590715840     100.0%      0.0%      0.0%
 flops   26 x   13 x   32               621530624     100.0%      0.0%      0.0%
 flops   13 x   26 x   32               621530624     100.0%      0.0%      0.0%
 flops   32 x   32 x   32               684720128     100.0%      0.0%      0.0%
 flops   10 x   32 x   26               860620800     100.0%      0.0%      0.0%
 flops   32 x   10 x   26               860620800     100.0%      0.0%      0.0%
 flops   78 x   32 x   39              1443806208     100.0%      0.0%      0.0%
 flops   78 x   32 x   10              1521361920     100.0%      0.0%      0.0%
 flops   78 x   10 x   32              1521361920     100.0%      0.0%      0.0%
 flops   26 x   32 x   13              1890290688     100.0%      0.0%      0.0%
 flops   13 x   32 x   26              1890290688     100.0%      0.0%      0.0%
 flops   13 x   13 x   10              2233625680     100.0%      0.0%      0.0%
 flops   32 x   32 x   26              2753986560     100.0%      0.0%      0.0%
 flops   78 x   10 x   26              3007929600     100.0%      0.0%      0.0%
 flops   78 x   32 x   32              4868358144     100.0%      0.0%      0.0%
 flops   13 x   10 x   13              6497874240     100.0%      0.0%      0.0%
 flops   13 x   13 x   32              7147602176     100.0%      0.0%      0.0%
 flops   78 x   32 x   26              9625374720     100.0%      0.0%      0.0%
 flops   13 x   32 x   13             20793197568     100.0%      0.0%      0.0%
 flops total                          74466595728     100.0%      0.0%      0.0%
 flops max/rank                       15477152256     100.0%      0.0%      0.0%
 matmuls inhomo. stacks                         0       0.0%      0.0%      0.0%
 matmuls total                            6278504     100.0%      0.0%      0.0%
 number of processed stacks               1326264     100.0%      0.0%      0.0%
 average stack size                                     4.7       0.0       0.0
 marketing flops                    84.738646E+09
 -------------------------------------------------------------------------------
 max memory usage/rank             507.723776E+06
 # max total images/rank                        3
 # MPI messages exchanged                19073400
 # MPI messages filtered                        0
 MPI messages size (elements):
  total size                         4.994010E+09
  min size                           0.000000E+00
  max size                           3.042000E+03
  average size                     261.831146E+00
 MPI breakdown and total messages size (bytes):
             size <=      128            14595700                        0
       128 < size <=     8192             2831030              12238002400
      8192 < size <=    32768             1646670              27698386560
     32768 < size <=   131072                   0                        0
    131072 < size <=  4194304                   0                        0
   4194304 < size <= 16777216                   0                        0
  16777216 < size                               0                        0
 -------------------------------------------------------------------------------
 Warning: using a non-square number of MPI ranks might lead to poor performance.
          used ranks: 24
          suggested : 25 49
 -------------------------------------------------------------------------------
 
 MEMORY| Estimated peak process memory [MiB]                                 485

 -------------------------------------------------------------------------------
 -                                                                             -
 -                         MESSAGE PASSING PERFORMANCE                         -
 -                                                                             -
 -------------------------------------------------------------------------------

 ROUTINE             CALLS  TOT TIME [s]  AVE VOLUME [Bytes]  PERFORMANCE [MB/s]
 MP_Group                6         0.000
 MP_Bcast            41262         0.121               9545.             3258.85
 MP_Allreduce       173086       184.996                 90.                0.08
 MP_Gather             220         0.004                480.               26.48
 MP_Sync              1297         0.006
 MP_Alltoall        135478       302.742            4261890.             1907.21
 MP_ISendRecv       160218         0.533             106200.            31898.02
 MP_Wait           2414039       109.151
 MP_comm_split        1293         0.050
 MP_ISend          2068634         3.048              35248.            23919.52
 MP_IRecv          2053066         1.568              35242.            46139.89
 MP_Recv               750         0.003              17472.             4412.50
 MP_Memory         2970494         0.845
 -------------------------------------------------------------------------------


 -------------------------------------------------------------------------------
 -                                                                             -
 -                           R E F E R E N C E S                               -
 -                                                                             -
 -------------------------------------------------------------------------------
 
 CP2K version 3.0, the CP2K developers group (2015).
 CP2K is freely available from https://www.cp2k.org/ .

 Borstnik, U; VandeVondele, J; Weber, V; Hutter, J. 
 PARALLEL COMPUTING, 40 (5-6), 47-58 (2014). 
 Sparse matrix multiplication: The distributed block-compressed sparse
 row library.
 http://dx.doi.org/10.1016/j.parco.2014.03.012


 Hutter, J; Iannuzzi, M; Schiffmann, F; VandeVondele, J. 
 WILEY INTERDISCIPLINARY REVIEWS-COMPUTATIONAL MOLECULAR SCIENCE, 4 (1), 15-25 (2014). 
 CP2K: atomistic simulations of condensed matter systems.
 http://dx.doi.org/10.1002/wcms.1159


 VandeVondele, J; Hutter, J. 
 JOURNAL OF CHEMICAL PHYSICS, 127 (11), 114105 (2007). 
 Gaussian basis sets for accurate calculations on molecular systems in
 gas and condensed phases.
 http://dx.doi.org/10.1063/1.2770708


 Krack, M. 
 THEORETICAL CHEMISTRY ACCOUNTS, 114 (1-3), 145-152 (2005). 
 Pseudopotentials for H to Kr optimized for gradient-corrected
 exchange-correlation functionals.
 http://dx.doi.org/10.1007/s00214-005-0655-y


 VandeVondele, J; Krack, M; Mohamed, F; Parrinello, M; Chassaing, T;
 Hutter, J. COMPUTER PHYSICS COMMUNICATIONS, 167 (2), 103-128 (2005). 
 QUICKSTEP: Fast and accurate density functional calculations using a
 mixed Gaussian and plane waves approach.
 http://dx.doi.org/10.1016/j.cpc.2004.12.014


 Frigo, M; Johnson, SG. 
 PROCEEDINGS OF THE IEEE, 93 (2), 216-231 (2005). 
 The design and implementation of FFTW3.
 http://dx.doi.org/10.1109/JPROC.2004.840301


 Kolafa, J. 
 JOURNAL OF COMPUTATIONAL CHEMISTRY, 25 (3), 335-342 (2004). 
 Time-reversible always stable predictor-corrector method for molecular dynamics of polarizable molecules.
 http://dx.doi.org/10.1002/jcc.10385


 VandeVondele, J; Hutter, J. 
 JOURNAL OF CHEMICAL PHYSICS, 118 (10), 4365-4369 (2003). 
 An efficient orbital transformation method for electronic structure
 calculations.
 http://dx.doi.org/10.1063/1.1543154


 Martyna, GJ; Tuckerman, ME. 
 JOURNAL OF CHEMICAL PHYSICS, 110 (6), 2810-2821 (1999). 
 A reciprocal space based method for treating long range interactions in
 ab initio and force-field-based calculations in clusters.
 http://dx.doi.org/10.1063/1.477923


 Hartwigsen, C; Goedecker, S; Hutter, J. 
 PHYSICAL REVIEW B, 58 (7), 3641-3662 (1998). 
 Relativistic separable dual-space Gaussian pseudopotentials from H to Rn.
 http://dx.doi.org/10.1103/PhysRevB.58.3641


 Lippert, G; Hutter, J; Parrinello, M. 
 MOLECULAR PHYSICS, 92 (3), 477-487 (1997). 
 A hybrid Gaussian and plane wave density functional scheme.
 http://dx.doi.org/10.1080/002689797170220


 Perdew, JP; Burke, K; Ernzerhof, M. 
 PHYSICAL REVIEW LETTERS, 77 (18), 3865-3868 (1996). 
 Generalized gradient approximation made simple.
 http://dx.doi.org/10.1103/PhysRevLett.77.3865


 Goedecker, S; Teter, M; Hutter, J. 
 PHYSICAL REVIEW B, 54 (3), 1703-1710 (1996). 
 Separable dual-space Gaussian pseudopotentials.
 http://dx.doi.org/10.1103/PhysRevB.54.1703


 BYRD, RH; LU, PH; NOCEDAL, J; ZHU, CY. 
 SIAM JOURNAL ON SCIENTIFIC COMPUTING, 16 (5), 1190-1208 (1995). 
 A LIMITED MEMORY ALGORITHM FOR BOUND CONSTRAINED OPTIMIZATION.
 http://dx.doi.org/10.1137/0916069


 -------------------------------------------------------------------------------
 -                                                                             -
 -                                T I M I N G                                  -
 -                                                                             -
 -------------------------------------------------------------------------------
 SUBROUTINE                       CALLS  ASD         SELF TIME        TOTAL TIME
                                MAXIMUM       AVERAGE  MAXIMUM  AVERAGE  MAXIMUM
 CP2K                                 1  1.0    0.267    0.278 3400.053 3400.066
 cp_geo_opt                           1  2.0    0.012    0.012 3397.703 3397.705
 geoopt_lbfgs                         1  3.0    0.017    0.040 3397.691 3397.694
 cp_eval_at                          55  5.0    0.033    0.253 3391.828 3392.037
 cp_opt_gopt_step                    49  4.0    5.571    5.811 3379.816 3379.817
 qs_forces                           54  6.0    0.053    0.062 3373.960 3373.960
 qs_energies                         55  7.0    0.053    0.054 3307.607 3307.609
 scf_env_do_scf                      55  8.0    0.011    0.071 3272.768 3272.769
 scf_env_do_scf_inner_loop         2503  9.0    0.134    0.999 3187.178 3187.266
 rebuild_ks_matrix                 2557 10.9    0.009    0.010 2309.708 2309.886
 qs_ks_build_kohn_sham_matrix      2557 11.9    1.123    1.521 2309.698 2309.877
 qs_ks_update_qs_env               2559 10.0    0.022    0.028 2227.004 2227.182
 pw_transfer                      33956 14.3    4.556    5.665 2146.663 2208.937
 fft_wrap_pw1pw2                  28842 15.4    0.591    0.683 2103.596 2166.427
 fft_wrap_pw1pw2_180              18392 16.7  167.416  195.188 2031.076 2091.610
 qs_vxc_create                     2557 12.9    0.089    0.100 1791.778 1799.192
 fft3d_ps                         28842 17.4  930.670 1030.972 1625.245 1701.613
 xc_rho_set_and_dset_create        2557 14.9   15.664   17.055 1254.379 1391.009
 qs_rho_update_rho                 2558 10.0    0.019    0.021  978.516  978.536
 calculate_rho_elec                2558 11.0   43.358  107.085  978.497  978.517
 xc_vxc_pw_create                   925 13.8   13.668   20.222  906.236  913.661
 density_rs2pw                     2558 12.0    0.240    0.294  867.416  897.430
 xc_exc_calc                       1632 14.0   88.580  182.373  885.453  885.465
 x_to_yz                          14854 19.1  450.399  549.430  450.399  549.430
 rs_pw_transfer                   14041 13.7    0.284    0.312  362.672  385.593
 yz_to_x                          13988 17.5  243.777  310.657  243.777  310.657
 xc_functional_eval                2557 15.9    0.050    0.091  171.656  310.257
 pbe_lda_eval                      2557 16.9  171.605  310.194  171.605  310.194
 sum_up_and_integrate               925 12.8    7.581    8.086  270.879  270.987
 integrate_v_rspace                 925 13.8   11.707   30.941  263.296  263.680
 pw_scatter_p                     14854 18.1  211.945  240.761  211.945  240.761
 potential_pw2rs                    925 14.8    0.586    0.636  231.768  232.210
 rs_pw_transfer_RS2PW_180          2613 14.0  163.159  186.563  163.159  186.563
 pw_derive                        10446 15.6  137.636  142.758  137.636  142.758
 pw_copy                          21599 15.3  121.680  126.837  121.680  126.837
 pw_gather_p                      13988 16.5   90.789   96.172   90.789   96.172
 pw_poisson_solve                  2557 12.9   53.279   53.928   93.025   93.026
 rs_grid_zero                     12191 12.9   87.782   88.702   87.782   88.702
 init_scf_loop                       56  9.0    0.050    0.051   85.447   85.449
 qs_ks_update_qs_env_forces          54  7.0    0.000    0.000   82.959   82.969
 rs_pw_transfer_PW2RS_180           979 16.5   62.578   63.448   77.291   78.231
 fft_wrap_pw1pw2_60                3483 15.8    6.591    7.397   62.142   70.633
 -------------------------------------------------------------------------------

 The number of warnings for this run is : 1
 
 -------------------------------------------------------------------------------
  **** **** ******  **  PROGRAM ENDED AT                 2016-12-06 23:49:42.687
 ***** ** ***  *** **   PROGRAM RAN ON                                    cn4828
 **    ****   ******    PROGRAM RAN BY                       tsinghua_chem_jli_1
 ***** **    ** ** **   PROGRAM PROCESS ID                                 27663
  **** **  *******  **  PROGRAM STOPPED IN /WORK/tsinghua_chem_jli_1/TGMin2/CoB2
                                           2p/scratch/worker1
