 Entering Gaussian System, Link 0=g09
 Input=freq.com
 Output=freq.log
 Initial command:
 /opt/g09/l1.exe "/home/sky/Gau-22244.inp" -scrdir="/home/sky/"
 Default is to use a total of   4 processors:
                                4 via shared-memory
                                1 via Linda
 Entering Link 1 = /opt/g09/l1.exe PID=     22246.
  
 Copyright (c) 1988,1990,1992,1993,1995,1998,2003,2009,2013,
            Gaussian, Inc.  All Rights Reserved.
  
 This is part of the Gaussian(R) 09 program.  It is based on
 the Gaussian(R) 03 system (copyright 2003, Gaussian, Inc.),
 the Gaussian(R) 98 system (copyright 1998, Gaussian, Inc.),
 the Gaussian(R) 94 system (copyright 1995, Gaussian, Inc.),
 the Gaussian 92(TM) system (copyright 1992, Gaussian, Inc.),
 the Gaussian 90(TM) system (copyright 1990, Gaussian, Inc.),
 the Gaussian 88(TM) system (copyright 1988, Gaussian, Inc.),
 the Gaussian 86(TM) system (copyright 1986, Carnegie Mellon
 University), and the Gaussian 82(TM) system (copyright 1983,
 Carnegie Mellon University). Gaussian is a federally registered
 trademark of Gaussian, Inc.
  
 This software contains proprietary and confidential information,
 including trade secrets, belonging to Gaussian, Inc.
  
 This software is provided under written license and may be
 used, copied, transmitted, or stored only in accord with that
 written license.
  
 The following legend is applicable only to US Government
 contracts under FAR:
  
                    RESTRICTED RIGHTS LEGEND
  
 Use, reproduction and disclosure by the US Government is
 subject to restrictions as set forth in subparagraphs (a)
 and (c) of the Commercial Computer Software - Restricted
 Rights clause in FAR 52.227-19.
  
 Gaussian, Inc.
 340 Quinnipiac St., Bldg. 40, Wallingford CT 06492
  
  
 ---------------------------------------------------------------
 Warning -- This program may not be used in any manner that
 competes with the business of Gaussian, Inc. or will provide
 assistance to any competitor of Gaussian, Inc.  The licensee
 of this program is prohibited from giving any competitor of
 Gaussian, Inc. access to this program.  By using this program,
 the user acknowledges that Gaussian, Inc. is engaged in the
 business of creating and licensing software in the field of
 computational chemistry and represents and warrants to the
 licensee that it is not a competitor of Gaussian, Inc. and that
 it will not use this program in any manner prohibited above.
 ---------------------------------------------------------------
  

 Cite this work as:
 Gaussian 09, Revision D.01,
 M. J. Frisch, G. W. Trucks, H. B. Schlegel, G. E. Scuseria, 
 M. A. Robb, J. R. Cheeseman, G. Scalmani, V. Barone, B. Mennucci, 
 G. A. Petersson, H. Nakatsuji, M. Caricato, X. Li, H. P. Hratchian, 
 A. F. Izmaylov, J. Bloino, G. Zheng, J. L. Sonnenberg, M. Hada, 
 M. Ehara, K. Toyota, R. Fukuda, J. Hasegawa, M. Ishida, T. Nakajima, 
 Y. Honda, O. Kitao, H. Nakai, T. Vreven, J. A. Montgomery, Jr., 
 J. E. Peralta, F. Ogliaro, M. Bearpark, J. J. Heyd, E. Brothers, 
 K. N. Kudin, V. N. Staroverov, T. Keith, R. Kobayashi, J. Normand, 
 K. Raghavachari, A. Rendell, J. C. Burant, S. S. Iyengar, J. Tomasi, 
 M. Cossi, N. Rega, J. M. Millam, M. Klene, J. E. Knox, J. B. Cross, 
 V. Bakken, C. Adamo, J. Jaramillo, R. Gomperts, R. E. Stratmann, 
 O. Yazyev, A. J. Austin, R. Cammi, C. Pomelli, J. W. Ochterski, 
 R. L. Martin, K. Morokuma, V. G. Zakrzewski, G. A. Voth, 
 P. Salvador, J. J. Dannenberg, S. Dapprich, A. D. Daniels, 
 O. Farkas, J. B. Foresman, J. V. Ortiz, J. Cioslowski, 
 and D. J. Fox, Gaussian, Inc., Wallingford CT, 2013.
 
 ******************************************
 Gaussian 09:  ES64L-G09RevD.01 24-Apr-2013
                 8-Jun-2019 
 ******************************************
 %mem=4GB
 %chk=freq.chk
 %nprocshared=4
 Will use up to    4 processors via shared memory.
 ----------------------------------------
 # opt freq b3lyp/3-21g geom=connectivity
 ----------------------------------------
 1/14=-1,18=20,19=15,26=3,38=1,57=2/1,3;
 2/9=110,12=2,17=6,18=5,40=1/2;
 3/5=5,11=2,16=1,25=1,30=1,71=1,74=-5/1,2,3;
 4//1;
 5/5=2,38=5/2;
 6/7=2,8=2,9=2,10=2,28=1/1;
 7//1,2,3,16;
 1/14=-1,18=20,19=15,26=3/3(2);
 2/9=110/2;
 99//99;
 2/9=110/2;
 3/5=5,11=2,16=1,25=1,30=1,71=1,74=-5/1,2,3;
 4/5=5,16=3,69=1/1;
 5/5=2,38=5/2;
 7//1,2,3,16;
 1/14=-1,18=20,19=15,26=3/3(-5);
 2/9=110/2;
 6/7=2,8=2,9=2,10=2,19=2,28=1/1;
 99/9=1/99;
 -------------------
 Title Card Required
 -------------------
 Symbolic Z-matrix:
 Charge =  0 Multiplicity = 1
 C                     0.00877  -0.44136   0.7281 
 H                     0.36543  -1.45017   0.7281 
 H                     0.36545   0.06304   1.60175 
 H                     0.36545   0.06304  -0.14555 
 H                    -1.06123  -0.44134   0.7281 
 

 GradGradGradGradGradGradGradGradGradGradGradGradGradGradGradGradGradGrad
 Berny optimization.
 Initialization pass.
                           ----------------------------
                           !    Initial Parameters    !
                           ! (Angstroms and Degrees)  !
 --------------------------                            --------------------------
 ! Name  Definition              Value          Derivative Info.                !
 --------------------------------------------------------------------------------
 ! R1    R(1,2)                  1.07           estimate D2E/DX2                !
 ! R2    R(1,3)                  1.07           estimate D2E/DX2                !
 ! R3    R(1,4)                  1.07           estimate D2E/DX2                !
 ! R4    R(1,5)                  1.07           estimate D2E/DX2                !
 ! A1    A(2,1,3)              109.4712         estimate D2E/DX2                !
 ! A2    A(2,1,4)              109.4712         estimate D2E/DX2                !
 ! A3    A(2,1,5)              109.4712         estimate D2E/DX2                !
 ! A4    A(3,1,4)              109.4713         estimate D2E/DX2                !
 ! A5    A(3,1,5)              109.4712         estimate D2E/DX2                !
 ! A6    A(4,1,5)              109.4712         estimate D2E/DX2                !
 ! D1    D(2,1,4,3)           -120.0            estimate D2E/DX2                !
 ! D2    D(2,1,5,3)            120.0            estimate D2E/DX2                !
 ! D3    D(2,1,5,4)           -120.0            estimate D2E/DX2                !
 ! D4    D(3,1,5,4)            120.0            estimate D2E/DX2                !
 --------------------------------------------------------------------------------
 Trust Radius=3.00D-01 FncErr=1.00D-07 GrdErr=1.00D-06
 Number of steps in this run=     24 maximum allowed number of steps=    100.
 GradGradGradGradGradGradGradGradGradGradGradGradGradGradGradGradGradGrad

                          Input orientation:                          
 ---------------------------------------------------------------------
 Center     Atomic      Atomic             Coordinates (Angstroms)
 Number     Number       Type             X           Y           Z
 ---------------------------------------------------------------------
      1          6           0        0.008774   -0.441355    0.728100
      2          1           0        0.365429   -1.450165    0.728100
      3          1           0        0.365447    0.063043    1.601751
      4          1           0        0.365447    0.063043   -0.145552
      5          1           0       -1.061226   -0.441342    0.728100
 ---------------------------------------------------------------------
                    Distance matrix (angstroms):
                    1          2          3          4          5
     1  C    0.000000
     2  H    1.070000   0.000000
     3  H    1.070000   1.747302   0.000000
     4  H    1.070000   1.747302   1.747303   0.000000
     5  H    1.070000   1.747303   1.747303   1.747303   0.000000
 Stoichiometry    CH4
 Framework group  T[O(C),4C3(H)]
 Deg. of freedom     1
 Full point group                 T       NOp  12
 Largest Abelian subgroup         D2      NOp   4
 Largest concise Abelian subgroup D2      NOp   4
                         Standard orientation:                         
 ---------------------------------------------------------------------
 Center     Atomic      Atomic             Coordinates (Angstroms)
 Number     Number       Type             X           Y           Z
 ---------------------------------------------------------------------
      1          6           0        0.000000    0.000000    0.000000
      2          1           0        0.617765    0.617765    0.617765
      3          1           0       -0.617765   -0.617765    0.617765
      4          1           0       -0.617765    0.617765   -0.617765
      5          1           0        0.617765   -0.617765   -0.617765
 ---------------------------------------------------------------------
 Rotational constants (GHZ):    164.2463768    164.2463768    164.2463768
 Standard basis: 3-21G (6D, 7F)
 There are     5 symmetry adapted cartesian basis functions of A   symmetry.
 There are     4 symmetry adapted cartesian basis functions of B1  symmetry.
 There are     4 symmetry adapted cartesian basis functions of B2  symmetry.
 There are     4 symmetry adapted cartesian basis functions of B3  symmetry.
 There are     5 symmetry adapted basis functions of A   symmetry.
 There are     4 symmetry adapted basis functions of B1  symmetry.
 There are     4 symmetry adapted basis functions of B2  symmetry.
 There are     4 symmetry adapted basis functions of B3  symmetry.
    17 basis functions,    27 primitive gaussians,    17 cartesian basis functions
     5 alpha electrons        5 beta electrons
       nuclear repulsion energy        13.6865184815 Hartrees.
 NAtoms=    5 NActive=    5 NUniq=    2 SFac= 4.00D+00 NAtFMM=   60 NAOKFM=F Big=F
 Integral buffers will be    131072 words long.
 Raffenetti 2 integral format.
 Two-electron integral symmetry is turned on.
 One-electron integrals computed using PRISM.
 NBasis=    17 RedAO= T EigKep=  4.03D-02  NBF=     5     4     4     4
 NBsUse=    17 1.00D-06 EigRej= -1.00D+00 NBFU=     5     4     4     4
 ExpMin= 1.83D-01 ExpMax= 1.72D+02 ExpMxC= 1.72D+02 IAcc=1 IRadAn=         1 AccDes= 0.00D+00
 Harris functional with IExCor=  402 and IRadAn=       1 diagonalized for initial guess.
 HarFok:  IExCor=  402 AccDes= 0.00D+00 IRadAn=         1 IDoV= 1 UseB2=F ITyADJ=14
 ICtDFT=  3500011 ScaDFX=  1.000000  1.000000  1.000000  1.000000
 FoFCou: FMM=F IPFlag=           0 FMFlag=      100000 FMFlg1=           0
         NFxFlg=           0 DoJE=T BraDBF=F KetDBF=T FulRan=T
         wScrn=  0.000000 ICntrl=     500 IOpCl=  0 I1Cent=   200000004 NGrid=           0
         NMat0=    1 NMatS0=      1 NMatT0=    0 NMatD0=    1 NMtDS0=    0 NMtDT0=    0
 Petite list used in FoFCou.
 Initial guess orbital symmetries:
       Occupied  (A) (A) (T) (T) (T)
       Virtual   (A) (T) (T) (T) (T) (T) (T) (A) (T) (T) (T) (A)
 The electronic state of the initial guess is 1-A.
 Keep R1 ints in memory in symmetry-blocked form, NReq=892029.
 Requested convergence on RMS density matrix=1.00D-08 within 128 cycles.
 Requested convergence on MAX density matrix=1.00D-06.
 Requested convergence on             energy=1.00D-06.
 No special actions if energy rises.
 Integral accuracy reduced to 1.0D-05 until final iterations.
 Initial convergence to 1.0D-05 achieved.  Increase integral accuracy.
 SCF Done:  E(RB3LYP) =  -40.3001692339     A.U. after   10 cycles
            NFock= 10  Conv=0.75D-09     -V/T= 2.0075

 **********************************************************************

            Population analysis using the SCF density.

 **********************************************************************

 Orbital symmetries:
       Occupied  (A) (A) (T) (T) (T)
       Virtual   (A) (T) (T) (T) (T) (T) (T) (A) (T) (T) (T) (A)
 The electronic state is 1-A.
 Alpha  occ. eigenvalues --  -10.09014  -0.69707  -0.39290  -0.39290  -0.39290
 Alpha virt. eigenvalues --    0.15270   0.20199   0.20199   0.20199   0.69610
 Alpha virt. eigenvalues --    0.69610   0.69610   1.05748   1.07496   1.07496
 Alpha virt. eigenvalues --    1.07496   1.70666
          Condensed to atoms (all electrons):
               1          2          3          4          5
     1  C    5.301682   0.370481   0.370481   0.370481   0.370481
     2  H    0.370481   0.513883  -0.026755  -0.026755  -0.026755
     3  H    0.370481  -0.026755   0.513883  -0.026755  -0.026755
     4  H    0.370481  -0.026755  -0.026755   0.513883  -0.026755
     5  H    0.370481  -0.026755  -0.026755  -0.026755   0.513883
 Mulliken charges:
               1
     1  C   -0.783605
     2  H    0.195901
     3  H    0.195901
     4  H    0.195901
     5  H    0.195901
 Sum of Mulliken charges =   0.00000
 Mulliken charges with hydrogens summed into heavy atoms:
               1
     1  C    0.000000
 Electronic spatial extent (au):  <R**2>=             34.6301
 Charge=              0.0000 electrons
 Dipole moment (field-independent basis, Debye):
    X=              0.0000    Y=              0.0000    Z=              0.0000  Tot=              0.0000
 Quadrupole moment (field-independent basis, Debye-Ang):
   XX=             -8.1940   YY=             -8.1940   ZZ=             -8.1940
   XY=              0.0000   XZ=              0.0000   YZ=              0.0000
 Traceless Quadrupole moment (field-independent basis, Debye-Ang):
   XX=              0.0000   YY=              0.0000   ZZ=              0.0000
   XY=              0.0000   XZ=              0.0000   YZ=              0.0000
 Octapole moment (field-independent basis, Debye-Ang**2):
  XXX=              0.0000  YYY=              0.0000  ZZZ=              0.0000  XYY=              0.0000
  XXY=              0.0000  XXZ=              0.0000  XZZ=              0.0000  YZZ=              0.0000
  YYZ=              0.0000  XYZ=              0.6835
 Hexadecapole moment (field-independent basis, Debye-Ang**3):
 XXXX=            -14.7420 YYYY=            -14.7420 ZZZZ=            -14.7420 XXXY=              0.0000
 XXXZ=              0.0000 YYYX=              0.0000 YYYZ=              0.0000 ZZZX=              0.0000
 ZZZY=              0.0000 XXYY=             -4.4971 XXZZ=             -4.4971 YYZZ=             -4.4971
 XXYZ=              0.0000 YYXZ=              0.0000 ZZXY=              0.0000
 N-N= 1.368651848151D+01 E-N=-1.200129236886D+02  KE= 3.999916138878D+01
 Symmetry A    KE= 3.416417192341D+01
 Symmetry B1   KE= 1.944996488455D+00
 Symmetry B2   KE= 1.944996488455D+00
 Symmetry B3   KE= 1.944996488455D+00
 Calling FoFJK, ICntrl=      2127 FMM=F ISym2X=1 I1Cent= 0 IOpClX= 0 NMat=1 NMatS=1 NMatT=0.
 ***** Axes restored to original set *****
 -------------------------------------------------------------------
 Center     Atomic                   Forces (Hartrees/Bohr)
 Number     Number              X              Y              Z
 -------------------------------------------------------------------
      1        6           0.000000000    0.000000000    0.000000000
      2        1           0.005554257   -0.015710418   -0.000000014
      3        1           0.005554554    0.007855100    0.013605562
      4        1           0.005554531    0.007855116   -0.013605562
      5        1          -0.016663343    0.000000202    0.000000014
 -------------------------------------------------------------------
 Cartesian Forces:  Max     0.016663343 RMS     0.008604913

 GradGradGradGradGradGradGradGradGradGradGradGradGradGradGradGradGradGrad
 Berny optimization.
 FormGI is forming the generalized inverse of G from B-inverse, IUseBI=4.
 Internal  Forces:  Max     0.016663343 RMS     0.008906931
 Search for a local minimum.
 Step number   1 out of a maximum of   24
 All quantities printed in internal units (Hartrees-Bohrs-Radians)
 Mixed Optimization -- RFO/linear search
 Second derivative matrix not updated -- first step.
 The second derivative matrix:
                          R1        R2        R3        R4        A1
           R1           0.37230
           R2           0.00000   0.37230
           R3           0.00000   0.00000   0.37230
           R4           0.00000   0.00000   0.00000   0.37230
           A1           0.00000   0.00000   0.00000   0.00000   0.16000
           A2           0.00000   0.00000   0.00000   0.00000   0.00000
           A3           0.00000   0.00000   0.00000   0.00000   0.00000
           A4           0.00000   0.00000   0.00000   0.00000   0.00000
           A5           0.00000   0.00000   0.00000   0.00000   0.00000
           A6           0.00000   0.00000   0.00000   0.00000   0.00000
           D1           0.00000   0.00000   0.00000   0.00000   0.00000
           D2           0.00000   0.00000   0.00000   0.00000   0.00000
           D3           0.00000   0.00000   0.00000   0.00000   0.00000
           D4           0.00000   0.00000   0.00000   0.00000   0.00000
                          A2        A3        A4        A5        A6
           A2           0.16000
           A3           0.00000   0.16000
           A4           0.00000   0.00000   0.16000
           A5           0.00000   0.00000   0.00000   0.16000
           A6           0.00000   0.00000   0.00000   0.00000   0.16000
           D1           0.00000   0.00000   0.00000   0.00000   0.00000
           D2           0.00000   0.00000   0.00000   0.00000   0.00000
           D3           0.00000   0.00000   0.00000   0.00000   0.00000
           D4           0.00000   0.00000   0.00000   0.00000   0.00000
                          D1        D2        D3        D4
           D1           0.00499
           D2           0.00000   0.00499
           D3           0.00000   0.00000   0.00499
           D4           0.00000   0.00000   0.00000   0.00499
 ITU=  0
     Eigenvalues ---    0.05269   0.05891   0.08766   0.16000   0.16000
     Eigenvalues ---    0.37230   0.37230   0.37230   0.37230
 RFO step:  Lambda=-2.95972424D-03 EMin= 5.26881002D-02
 Linear search not attempted -- first point.
 Iteration  1 RMS(Cart)=  0.02373531 RMS(Int)=  0.00000000
 Iteration  2 RMS(Cart)=  0.00000000 RMS(Int)=  0.00000000
 ClnCor:  largest displacement from symmetrization is 2.19D-14 for atom     5.
 Variable       Old X    -DE/DX   Delta X   Delta X   Delta X     New X
                                 (Linear)    (Quad)   (Total)
    R1        2.02201   0.01666   0.00000   0.04440   0.04440   2.06641
    R2        2.02201   0.01666   0.00000   0.04440   0.04440   2.06641
    R3        2.02201   0.01666   0.00000   0.04440   0.04440   2.06641
    R4        2.02201   0.01666   0.00000   0.04440   0.04440   2.06641
    A1        1.91063   0.00000   0.00000   0.00000   0.00000   1.91063
    A2        1.91063   0.00000   0.00000   0.00000   0.00000   1.91063
    A3        1.91063   0.00000   0.00000   0.00000   0.00000   1.91063
    A4        1.91063   0.00000   0.00000   0.00000   0.00000   1.91063
    A5        1.91063   0.00000   0.00000   0.00000   0.00000   1.91063
    A6        1.91063   0.00000   0.00000   0.00000   0.00000   1.91063
    D1       -2.09440   0.00000   0.00000   0.00000   0.00000  -2.09440
    D2        2.09440   0.00000   0.00000   0.00000   0.00000   2.09440
    D3       -2.09440   0.00000   0.00000   0.00000   0.00000  -2.09440
    D4        2.09440   0.00000   0.00000   0.00000   0.00000   2.09440
         Item               Value     Threshold  Converged?
 Maximum Force            0.016663     0.000450     NO 
 RMS     Force            0.008907     0.000300     NO 
 Maximum Displacement     0.044405     0.001800     NO 
 RMS     Displacement     0.023735     0.001200     NO 
 Predicted change in Energy=-1.491533D-03
 GradGradGradGradGradGradGradGradGradGradGradGradGradGradGradGradGradGrad

                          Input orientation:                          
 ---------------------------------------------------------------------
 Center     Atomic      Atomic             Coordinates (Angstroms)
 Number     Number       Type             X           Y           Z
 ---------------------------------------------------------------------
      1          6           0        0.008774   -0.441355    0.728100
      2          1           0        0.373261   -1.472320    0.728099
      3          1           0        0.373281    0.074119    1.620937
      4          1           0        0.373279    0.074121   -0.164738
      5          1           0       -1.084724   -0.441342    0.728101
 ---------------------------------------------------------------------
                    Distance matrix (angstroms):
                    1          2          3          4          5
     1  C    0.000000
     2  H    1.093498   0.000000
     3  H    1.093498   1.785675   0.000000
     4  H    1.093498   1.785675   1.785675   0.000000
     5  H    1.093498   1.785675   1.785675   1.785675   0.000000
 Stoichiometry    CH4
 Framework group  TD[O(C),4C3(H)]
 Deg. of freedom     1
 Full point group                 TD      NOp  24
 Omega: Change in point group or standard orientation.

 Old FWG=T    [O(C1),4C3(H1)]
 New FWG=TD   [O(C1),4C3(H1)]
 Largest Abelian subgroup         D2      NOp   4
 Largest concise Abelian subgroup D2      NOp   4
                         Standard orientation:                         
 ---------------------------------------------------------------------
 Center     Atomic      Atomic             Coordinates (Angstroms)
 Number     Number       Type             X           Y           Z
 ---------------------------------------------------------------------
      1          6           0        0.000000    0.000000    0.000000
      2          1           0        0.631331    0.631331    0.631331
      3          1           0       -0.631331   -0.631331    0.631331
      4          1           0       -0.631331    0.631331   -0.631331
      5          1           0        0.631331   -0.631331   -0.631331
 ---------------------------------------------------------------------
 Rotational constants (GHZ):    157.2633068    157.2633068    157.2633068
 Standard basis: 3-21G (6D, 7F)
 There are     5 symmetry adapted cartesian basis functions of A   symmetry.
 There are     4 symmetry adapted cartesian basis functions of B1  symmetry.
 There are     4 symmetry adapted cartesian basis functions of B2  symmetry.
 There are     4 symmetry adapted cartesian basis functions of B3  symmetry.
 There are     5 symmetry adapted basis functions of A   symmetry.
 There are     4 symmetry adapted basis functions of B1  symmetry.
 There are     4 symmetry adapted basis functions of B2  symmetry.
 There are     4 symmetry adapted basis functions of B3  symmetry.
    17 basis functions,    27 primitive gaussians,    17 cartesian basis functions
     5 alpha electrons        5 beta electrons
       nuclear repulsion energy        13.3924116763 Hartrees.
 NAtoms=    5 NActive=    5 NUniq=    2 SFac= 4.00D+00 NAtFMM=   60 NAOKFM=F Big=F
 Integral buffers will be    131072 words long.
 Raffenetti 2 integral format.
 Two-electron integral symmetry is turned on.
 One-electron integrals computed using PRISM.
 NBasis=    17 RedAO= T EigKep=  4.34D-02  NBF=     5     4     4     4
 NBsUse=    17 1.00D-06 EigRej= -1.00D+00 NBFU=     5     4     4     4
 Initial guess from the checkpoint file:  "freq.chk"
 B after Tr=     0.000000    0.000000    0.000000
         Rot=    1.000000    0.000000    0.000000    0.000000 Ang=   0.00 deg.
 Initial guess orbital symmetries:
       Occupied  (A1) (A1) (T2) (T2) (T2)
       Virtual   (A1) (A1) (A1) (T2) (T2) (T2) (T2) (T2) (T2) (T2)
                 (T2) (T2)
 ExpMin= 1.83D-01 ExpMax= 1.72D+02 ExpMxC= 1.72D+02 IAcc=1 IRadAn=         1 AccDes= 0.00D+00
 Harris functional with IExCor=  402 and IRadAn=       1 diagonalized for initial guess.
 HarFok:  IExCor=  402 AccDes= 0.00D+00 IRadAn=         1 IDoV= 1 UseB2=F ITyADJ=14
 ICtDFT=  3500011 ScaDFX=  1.000000  1.000000  1.000000  1.000000
 FoFCou: FMM=F IPFlag=           0 FMFlag=      100000 FMFlg1=           0
         NFxFlg=           0 DoJE=T BraDBF=F KetDBF=T FulRan=T
         wScrn=  0.000000 ICntrl=     500 IOpCl=  0 I1Cent=   200000004 NGrid=           0
         NMat0=    1 NMatS0=      1 NMatT0=    0 NMatD0=    1 NMtDS0=    0 NMtDT0=    0
 Petite list used in FoFCou.
 Keep R1 ints in memory in symmetry-blocked form, NReq=892161.
 Requested convergence on RMS density matrix=1.00D-08 within 128 cycles.
 Requested convergence on MAX density matrix=1.00D-06.
 Requested convergence on             energy=1.00D-06.
 No special actions if energy rises.
 Integral accuracy reduced to 1.0D-05 until final iterations.
 Initial convergence to 1.0D-05 achieved.  Increase integral accuracy.
 SCF Done:  E(RB3LYP) =  -40.3016014128     A.U. after    9 cycles
            NFock=  9  Conv=0.73D-09     -V/T= 2.0107
 Calling FoFJK, ICntrl=      2127 FMM=F ISym2X=1 I1Cent= 0 IOpClX= 0 NMat=1 NMatS=1 NMatT=0.
 ***** Axes restored to original set *****
 -------------------------------------------------------------------
 Center     Atomic                   Forces (Hartrees/Bohr)
 Number     Number              X              Y              Z
 -------------------------------------------------------------------
      1        6           0.000000000    0.000000000    0.000000000
      2        1          -0.000055547    0.000157117    0.000000000
      3        1          -0.000055550   -0.000078557   -0.000136066
      4        1          -0.000055550   -0.000078557    0.000136066
      5        1           0.000166647   -0.000000002    0.000000000
 -------------------------------------------------------------------
 Cartesian Forces:  Max     0.000166647 RMS     0.000086056

 GradGradGradGradGradGradGradGradGradGradGradGradGradGradGradGradGradGrad
 Berny optimization.
 Using GEDIIS/GDIIS optimizer.
 FormGI is forming the generalized inverse of G from B-inverse, IUseBI=4.
 Internal  Forces:  Max     0.000166647 RMS     0.000089076
 Search for a local minimum.
 Step number   2 out of a maximum of   24
 All quantities printed in internal units (Hartrees-Bohrs-Radians)
 Mixed Optimization -- En-DIIS/RFO-DIIS
 Update second derivatives using D2CorX and points    1    2
 DE= -1.43D-03 DEPred=-1.49D-03 R= 9.60D-01
 TightC=F SS=  1.41D+00  RLast= 8.88D-02 DXNew= 5.0454D-01 2.6643D-01
 Trust test= 9.60D-01 RLast= 8.88D-02 DXMaxT set to 3.00D-01
 The second derivative matrix:
                          R1        R2        R3        R4        A1
           R1           0.37398
           R2           0.00168   0.37398
           R3           0.00168   0.00168   0.37398
           R4           0.00168   0.00168   0.00168   0.37398
           A1           0.00000   0.00000   0.00000   0.00000   0.16000
           A2           0.00000   0.00000   0.00000   0.00000   0.00000
           A3           0.00000   0.00000   0.00000   0.00000   0.00000
           A4           0.00000   0.00000   0.00000   0.00000   0.00000
           A5           0.00000   0.00000   0.00000   0.00000   0.00000
           A6           0.00000   0.00000   0.00000   0.00000   0.00000
           D1           0.00000   0.00000   0.00000   0.00000   0.00000
           D2           0.00000   0.00000   0.00000   0.00000   0.00000
           D3           0.00000   0.00000   0.00000   0.00000   0.00000
           D4           0.00000   0.00000   0.00000   0.00000   0.00000
                          A2        A3        A4        A5        A6
           A2           0.16000
           A3           0.00000   0.16000
           A4           0.00000   0.00000   0.16000
           A5           0.00000   0.00000   0.00000   0.16000
           A6           0.00000   0.00000   0.00000   0.00000   0.16000
           D1           0.00000   0.00000   0.00000   0.00000   0.00000
           D2           0.00000   0.00000   0.00000   0.00000   0.00000
           D3           0.00000   0.00000   0.00000   0.00000   0.00000
           D4           0.00000   0.00000   0.00000   0.00000   0.00000
                          D1        D2        D3        D4
           D1           0.00499
           D2           0.00000   0.00499
           D3           0.00000   0.00000   0.00499
           D4           0.00000   0.00000   0.00000   0.00499
 ITU=  1  0
 Use linear search instead of GDIIS.
     Eigenvalues ---    0.05269   0.05891   0.08766   0.16000   0.16000
     Eigenvalues ---    0.37230   0.37230   0.37230   0.37901
 RFO step:  Lambda= 0.00000000D+00 EMin= 5.26881002D-02
 Quartic linear search produced a step of -0.01059.
 Iteration  1 RMS(Cart)=  0.00025125 RMS(Int)=  0.00000000
 Iteration  2 RMS(Cart)=  0.00000000 RMS(Int)=  0.00000000
 ClnCor:  largest displacement from symmetrization is 1.03D-14 for atom     3.
 Variable       Old X    -DE/DX   Delta X   Delta X   Delta X     New X
                                 (Linear)    (Quad)   (Total)
    R1        2.06641  -0.00017  -0.00047   0.00000  -0.00047   2.06594
    R2        2.06641  -0.00017  -0.00047   0.00000  -0.00047   2.06594
    R3        2.06641  -0.00017  -0.00047   0.00000  -0.00047   2.06594
    R4        2.06641  -0.00017  -0.00047   0.00000  -0.00047   2.06594
    A1        1.91063   0.00000   0.00000   0.00000   0.00000   1.91063
    A2        1.91063   0.00000   0.00000   0.00000   0.00000   1.91063
    A3        1.91063   0.00000   0.00000   0.00000   0.00000   1.91063
    A4        1.91063   0.00000   0.00000   0.00000   0.00000   1.91063
    A5        1.91063   0.00000   0.00000   0.00000   0.00000   1.91063
    A6        1.91063   0.00000   0.00000   0.00000   0.00000   1.91063
    D1       -2.09440   0.00000   0.00000   0.00000   0.00000  -2.09440
    D2        2.09440   0.00000   0.00000   0.00000   0.00000   2.09440
    D3       -2.09440   0.00000   0.00000   0.00000   0.00000  -2.09440
    D4        2.09440   0.00000   0.00000   0.00000   0.00000   2.09440
         Item               Value     Threshold  Converged?
 Maximum Force            0.000167     0.000450     YES
 RMS     Force            0.000089     0.000300     YES
 Maximum Displacement     0.000470     0.001800     YES
 RMS     Displacement     0.000251     0.001200     YES
 Predicted change in Energy=-1.458449D-07
 Optimization completed.
    -- Stationary point found.
                           ----------------------------
                           !   Optimized Parameters   !
                           ! (Angstroms and Degrees)  !
 --------------------------                            --------------------------
 ! Name  Definition              Value          Derivative Info.                !
 --------------------------------------------------------------------------------
 ! R1    R(1,2)                  1.0935         -DE/DX =   -0.0002              !
 ! R2    R(1,3)                  1.0935         -DE/DX =   -0.0002              !
 ! R3    R(1,4)                  1.0935         -DE/DX =   -0.0002              !
 ! R4    R(1,5)                  1.0935         -DE/DX =   -0.0002              !
 ! A1    A(2,1,3)              109.4712         -DE/DX =    0.0                 !
 ! A2    A(2,1,4)              109.4712         -DE/DX =    0.0                 !
 ! A3    A(2,1,5)              109.4712         -DE/DX =    0.0                 !
 ! A4    A(3,1,4)              109.4712         -DE/DX =    0.0                 !
 ! A5    A(3,1,5)              109.4712         -DE/DX =    0.0                 !
 ! A6    A(4,1,5)              109.4712         -DE/DX =    0.0                 !
 ! D1    D(2,1,4,3)           -120.0            -DE/DX =    0.0                 !
 ! D2    D(2,1,5,3)            120.0            -DE/DX =    0.0                 !
 ! D3    D(2,1,5,4)           -120.0            -DE/DX =    0.0                 !
 ! D4    D(3,1,5,4)            120.0            -DE/DX =    0.0                 !
 --------------------------------------------------------------------------------
 GradGradGradGradGradGradGradGradGradGradGradGradGradGradGradGradGradGrad

                          Input orientation:                          
 ---------------------------------------------------------------------
 Center     Atomic      Atomic             Coordinates (Angstroms)
 Number     Number       Type             X           Y           Z
 ---------------------------------------------------------------------
      1          6           0        0.008774   -0.441355    0.728100
      2          1           0        0.373261   -1.472320    0.728099
      3          1           0        0.373281    0.074119    1.620937
      4          1           0        0.373279    0.074121   -0.164738
      5          1           0       -1.084724   -0.441342    0.728101
 ---------------------------------------------------------------------
                    Distance matrix (angstroms):
                    1          2          3          4          5
     1  C    0.000000
     2  H    1.093498   0.000000
     3  H    1.093498   1.785675   0.000000
     4  H    1.093498   1.785675   1.785675   0.000000
     5  H    1.093498   1.785675   1.785675   1.785675   0.000000
 Stoichiometry    CH4
 Framework group  TD[O(C),4C3(H)]
 Deg. of freedom     1
 Full point group                 TD      NOp  24
 Largest Abelian subgroup         D2      NOp   4
 Largest concise Abelian subgroup D2      NOp   4
                         Standard orientation:                         
 ---------------------------------------------------------------------
 Center     Atomic      Atomic             Coordinates (Angstroms)
 Number     Number       Type             X           Y           Z
 ---------------------------------------------------------------------
      1          6           0        0.000000    0.000000    0.000000
      2          1           0        0.631331    0.631331    0.631331
      3          1           0       -0.631331   -0.631331    0.631331
      4          1           0       -0.631331    0.631331   -0.631331
      5          1           0        0.631331   -0.631331   -0.631331
 ---------------------------------------------------------------------
 Rotational constants (GHZ):    157.2633068    157.2633068    157.2633068

 **********************************************************************

            Population analysis using the SCF density.

 **********************************************************************

 Orbital symmetries:
       Occupied  (A1) (A1) (T2) (T2) (T2)
       Virtual   (A1) (T2) (T2) (T2) (T2) (T2) (T2) (A1) (T2) (T2)
                 (T2) (A1)
 The electronic state is 1-A1.
 Alpha  occ. eigenvalues --  -10.09993  -0.68985  -0.38882  -0.38882  -0.38882
 Alpha virt. eigenvalues --    0.14583   0.19391   0.19391   0.19391   0.70792
 Alpha virt. eigenvalues --    0.70792   0.70792   1.02427   1.05544   1.05544
 Alpha virt. eigenvalues --    1.05544   1.69676
          Condensed to atoms (all electrons):
               1          2          3          4          5
     1  C    5.295367   0.367255   0.367255   0.367255   0.367255
     2  H    0.367255   0.519381  -0.025911  -0.025911  -0.025911
     3  H    0.367255  -0.025911   0.519381  -0.025911  -0.025911
     4  H    0.367255  -0.025911  -0.025911   0.519381  -0.025911
     5  H    0.367255  -0.025911  -0.025911  -0.025911   0.519381
 Mulliken charges:
               1
     1  C   -0.764386
     2  H    0.191097
     3  H    0.191097
     4  H    0.191097
     5  H    0.191097
 Sum of Mulliken charges =   0.00000
 Mulliken charges with hydrogens summed into heavy atoms:
               1
     1  C    0.000000
 Electronic spatial extent (au):  <R**2>=             35.4879
 Charge=              0.0000 electrons
 Dipole moment (field-independent basis, Debye):
    X=              0.0000    Y=              0.0000    Z=              0.0000  Tot=              0.0000
 Quadrupole moment (field-independent basis, Debye-Ang):
   XX=             -8.2530   YY=             -8.2530   ZZ=             -8.2530
   XY=              0.0000   XZ=              0.0000   YZ=              0.0000
 Traceless Quadrupole moment (field-independent basis, Debye-Ang):
   XX=              0.0000   YY=              0.0000   ZZ=              0.0000
   XY=              0.0000   XZ=              0.0000   YZ=              0.0000
 Octapole moment (field-independent basis, Debye-Ang**2):
  XXX=              0.0000  YYY=              0.0000  ZZZ=              0.0000  XYY=              0.0000
  XXY=              0.0000  XXZ=              0.0000  XZZ=              0.0000  YZZ=              0.0000
  YYZ=              0.0000  XYZ=              0.7448
 Hexadecapole moment (field-independent basis, Debye-Ang**3):
 XXXX=            -15.2581 YYYY=            -15.2581 ZZZZ=            -15.2581 XXXY=              0.0000
 XXXZ=              0.0000 YYYX=              0.0000 YYYZ=              0.0000 ZZZX=              0.0000
 ZZZY=              0.0000 XXYY=             -4.6274 XXZZ=             -4.6274 YYZZ=             -4.6274
 XXYZ=              0.0000 YYXZ=              0.0000 ZZXY=              0.0000
 N-N= 1.339241167632D+01 E-N=-1.193409864302D+02  KE= 3.987417749304D+01
 Symmetry A    KE= 3.414116356062D+01
 Symmetry B1   KE= 1.911004644140D+00
 Symmetry B2   KE= 1.911004644140D+00
 Symmetry B3   KE= 1.911004644140D+00
 1\1\GINC-WORK-PC\FOpt\RB3LYP\3-21G\C1H4\SKY\08-Jun-2019\0\\# opt freq 
 b3lyp/3-21g geom=connectivity\\Title Card Required\\0,1\C,0.00877438,-
 0.441355435,0.728099701\H,0.3732611938,-1.4723195707,0.7280987891\H,0.
 3732806754,0.0741194826,1.6209370078\H,0.3732791841,0.0741205348,-0.16
 47376072\H,-1.0847235333,-0.4413421866,0.7281006143\\Version=ES64L-G09
 RevD.01\State=1-A1\HF=-40.3016014\RMSD=7.281e-10\RMSF=8.606e-05\Dipole
 =0.,0.,0.\Quadrupole=0.,0.,0.,0.,0.,0.\PG=TD [O(C1),4C3(H1)]\\@


 A FOOL CAN ASK MORE QUESTIONS THAN
 A WISE MAN CAN ANSWER.
 Job cpu time:       0 days  0 hours  0 minutes  7.7 seconds.
 File lengths (MBytes):  RWF=      5 Int=      0 D2E=      0 Chk=      1 Scr=      1
 Normal termination of Gaussian 09 at Sat Jun  8 21:09:10 2019.
 Link1:  Proceeding to internal job step number  2.
 -----------------------------------------------------------------
 #N Geom=AllCheck Guess=TCheck SCRF=Check GenChk RB3LYP/3-21G Freq
 -----------------------------------------------------------------
 1/10=4,29=7,30=1,38=1,40=1/1,3;
 2/12=2,40=1/2;
 3/5=5,11=2,14=-4,16=1,25=1,30=1,70=2,71=2,74=-5,116=1,140=1/1,2,3;
 4/5=101/1;
 5/5=2,98=1/2;
 8/6=4,10=90,11=11/1;
 11/6=1,8=1,9=11,15=111,16=1/1,2,10;
 10/6=1/2;
 6/7=2,8=2,9=2,10=2,18=1,28=1/1;
 7/8=1,10=1,25=1/1,2,3,16;
 1/10=4,30=1/3;
 99//99;
 Structure from the checkpoint file:  "freq.chk"
 -------------------
 Title Card Required
 -------------------
 Charge =  0 Multiplicity = 1
 Redundant internal coordinates found in file.
 C,0,0.00877438,-0.441355435,0.728099701
 H,0,0.3732611938,-1.4723195707,0.7280987891
 H,0,0.3732806754,0.0741194826,1.6209370078
 H,0,0.3732791841,0.0741205348,-0.1647376072
 H,0,-1.0847235333,-0.4413421866,0.7281006143
 Recover connectivity data from disk.

 GradGradGradGradGradGradGradGradGradGradGradGradGradGradGradGradGradGrad
 Berny optimization.
 Initialization pass.
                           ----------------------------
                           !    Initial Parameters    !
                           ! (Angstroms and Degrees)  !
 --------------------------                            --------------------------
 ! Name  Definition              Value          Derivative Info.                !
 --------------------------------------------------------------------------------
 ! R1    R(1,2)                  1.0935         calculate D2E/DX2 analytically  !
 ! R2    R(1,3)                  1.0935         calculate D2E/DX2 analytically  !
 ! R3    R(1,4)                  1.0935         calculate D2E/DX2 analytically  !
 ! R4    R(1,5)                  1.0935         calculate D2E/DX2 analytically  !
 ! A1    A(2,1,3)              109.4712         calculate D2E/DX2 analytically  !
 ! A2    A(2,1,4)              109.4712         calculate D2E/DX2 analytically  !
 ! A3    A(2,1,5)              109.4712         calculate D2E/DX2 analytically  !
 ! A4    A(3,1,4)              109.4712         calculate D2E/DX2 analytically  !
 ! A5    A(3,1,5)              109.4712         calculate D2E/DX2 analytically  !
 ! A6    A(4,1,5)              109.4712         calculate D2E/DX2 analytically  !
 ! D1    D(2,1,4,3)           -120.0            calculate D2E/DX2 analytically  !
 ! D2    D(2,1,5,3)            120.0            calculate D2E/DX2 analytically  !
 ! D3    D(2,1,5,4)           -120.0            calculate D2E/DX2 analytically  !
 ! D4    D(3,1,5,4)            120.0            calculate D2E/DX2 analytically  !
 --------------------------------------------------------------------------------
 Trust Radius=3.00D-01 FncErr=1.00D-07 GrdErr=1.00D-07
 Number of steps in this run=      2 maximum allowed number of steps=      2.
 GradGradGradGradGradGradGradGradGradGradGradGradGradGradGradGradGradGrad

                          Input orientation:                          
 ---------------------------------------------------------------------
 Center     Atomic      Atomic             Coordinates (Angstroms)
 Number     Number       Type             X           Y           Z
 ---------------------------------------------------------------------
      1          6           0        0.008774   -0.441355    0.728100
      2          1           0        0.373261   -1.472320    0.728099
      3          1           0        0.373281    0.074119    1.620937
      4          1           0        0.373279    0.074121   -0.164738
      5          1           0       -1.084724   -0.441342    0.728101
 ---------------------------------------------------------------------
                    Distance matrix (angstroms):
                    1          2          3          4          5
     1  C    0.000000
     2  H    1.093498   0.000000
     3  H    1.093498   1.785675   0.000000
     4  H    1.093498   1.785675   1.785675   0.000000
     5  H    1.093498   1.785675   1.785675   1.785675   0.000000
 Stoichiometry    CH4
 Framework group  TD[O(C),4C3(H)]
 Deg. of freedom     1
 Full point group                 TD      NOp  24
 Largest Abelian subgroup         D2      NOp   4
 Largest concise Abelian subgroup D2      NOp   4
                         Standard orientation:                         
 ---------------------------------------------------------------------
 Center     Atomic      Atomic             Coordinates (Angstroms)
 Number     Number       Type             X           Y           Z
 ---------------------------------------------------------------------
      1          6           0        0.000000    0.000000    0.000000
      2          1           0        0.631331    0.631331    0.631331
      3          1           0       -0.631331   -0.631331    0.631331
      4          1           0       -0.631331    0.631331   -0.631331
      5          1           0        0.631331   -0.631331   -0.631331
 ---------------------------------------------------------------------
 Rotational constants (GHZ):    157.2633068    157.2633068    157.2633068
 Standard basis: 3-21G (6D, 7F)
 There are     5 symmetry adapted cartesian basis functions of A   symmetry.
 There are     4 symmetry adapted cartesian basis functions of B1  symmetry.
 There are     4 symmetry adapted cartesian basis functions of B2  symmetry.
 There are     4 symmetry adapted cartesian basis functions of B3  symmetry.
 There are     5 symmetry adapted basis functions of A   symmetry.
 There are     4 symmetry adapted basis functions of B1  symmetry.
 There are     4 symmetry adapted basis functions of B2  symmetry.
 There are     4 symmetry adapted basis functions of B3  symmetry.
    17 basis functions,    27 primitive gaussians,    17 cartesian basis functions
     5 alpha electrons        5 beta electrons
       nuclear repulsion energy        13.3924116763 Hartrees.
 NAtoms=    5 NActive=    5 NUniq=    2 SFac= 4.00D+00 NAtFMM=   60 NAOKFM=F Big=F
 Integral buffers will be    131072 words long.
 Raffenetti 2 integral format.
 Two-electron integral symmetry is turned on.
 One-electron integrals computed using PRISM.
 NBasis=    17 RedAO= T EigKep=  4.34D-02  NBF=     5     4     4     4
 NBsUse=    17 1.00D-06 EigRej= -1.00D+00 NBFU=     5     4     4     4
 Initial guess from the checkpoint file:  "freq.chk"
 B after Tr=     0.000000    0.000000    0.000000
         Rot=    1.000000    0.000000    0.000000    0.000000 Ang=   0.00 deg.
 Initial guess orbital symmetries:
       Occupied  (A1) (A1) (T2) (T2) (T2)
       Virtual   (A1) (T2) (T2) (T2) (T2) (T2) (T2) (A1) (T2) (T2)
                 (T2) (A1)
 Keep R1 ints in memory in symmetry-blocked form, NReq=892161.
 Requested convergence on RMS density matrix=1.00D-08 within 128 cycles.
 Requested convergence on MAX density matrix=1.00D-06.
 Requested convergence on             energy=1.00D-06.
 No special actions if energy rises.
 Skip diagonalization as Alpha Fock matrix is already diagonal.
 SCF Done:  E(RB3LYP) =  -40.3016014128     A.U. after    1 cycles
            NFock=  1  Conv=0.24D-17     -V/T= 2.0107
 DoSCS=F DFT=T ScalE2(SS,OS)=  1.000000  1.000000
 Range of M.O.s used for correlation:     1    17
 NBasis=    17 NAE=     5 NBE=     5 NFC=     0 NFV=     0
 NROrb=     17 NOA=     5 NOB=     5 NVA=    12 NVB=    12
 Symmetrizing basis deriv contribution to polar:
 IMax=3 JMax=2 DiffMx= 0.00D+00
 G2DrvN: will do     6 centers at a time, making    1 passes.
 Calling FoFCou, ICntrl=  3107 FMM=F I1Cent=   0 AccDes= 0.00D+00.
 End of G2Drv F.D. properties file   721 does not exist.
 End of G2Drv F.D. properties file   722 does not exist.
 End of G2Drv F.D. properties file   788 does not exist.
          IDoAtm=11111
          Differentiating once with respect to electric field.
                with respect to dipole field.
          Differentiating once with respect to nuclear coordinates.
 Keep R1 ints in memory in symmetry-blocked form, NReq=871889.
          There are     9 degrees of freedom in the 1st order CPHF.  IDoFFX=4 NUNeed=     9.
      9 vectors produced by pass  0 Test12= 6.67D-16 1.11D-08 XBig12= 5.65D+00 1.41D+00.
 AX will form     9 AO Fock derivatives at one time.
      9 vectors produced by pass  1 Test12= 6.67D-16 1.11D-08 XBig12= 3.24D-02 9.83D-02.
      9 vectors produced by pass  2 Test12= 6.67D-16 1.11D-08 XBig12= 1.49D-05 2.10D-03.
      9 vectors produced by pass  3 Test12= 6.67D-16 1.11D-08 XBig12= 1.19D-08 5.97D-05.
      9 vectors produced by pass  4 Test12= 6.67D-16 1.11D-08 XBig12= 9.63D-13 5.66D-07.
 InvSVY:  IOpt=1 It=  1 EMax= 8.33D-17
 Solved reduced A of dimension    45 with     9 vectors.
 Isotropic polarizability for W=    0.000000       11.53 Bohr**3.
 End of Minotr F.D. properties file   721 does not exist.
 End of Minotr F.D. properties file   722 does not exist.
 End of Minotr F.D. properties file   788 does not exist.

 **********************************************************************

            Population analysis using the SCF density.

 **********************************************************************

 Orbital symmetries:
       Occupied  (A1) (A1) (T2) (T2) (T2)
       Virtual   (A1) (T2) (T2) (T2) (T2) (T2) (T2) (A1) (T2) (T2)
                 (T2) (A1)
 The electronic state is 1-A1.
 Alpha  occ. eigenvalues --  -10.09993  -0.68985  -0.38882  -0.38882  -0.38882
 Alpha virt. eigenvalues --    0.14583   0.19391   0.19391   0.19391   0.70792
 Alpha virt. eigenvalues --    0.70792   0.70792   1.02427   1.05544   1.05544
 Alpha virt. eigenvalues --    1.05544   1.69676
          Condensed to atoms (all electrons):
               1          2          3          4          5
     1  C    5.295367   0.367255   0.367255   0.367255   0.367255
     2  H    0.367255   0.519381  -0.025911  -0.025911  -0.025911
     3  H    0.367255  -0.025911   0.519381  -0.025911  -0.025911
     4  H    0.367255  -0.025911  -0.025911   0.519381  -0.025911
     5  H    0.367255  -0.025911  -0.025911  -0.025911   0.519381
 Mulliken charges:
               1
     1  C   -0.764386
     2  H    0.191097
     3  H    0.191097
     4  H    0.191097
     5  H    0.191097
 Sum of Mulliken charges =   0.00000
 Mulliken charges with hydrogens summed into heavy atoms:
               1
     1  C    0.000000
 APT charges:
               1
     1  C   -0.056435
     2  H    0.014109
     3  H    0.014109
     4  H    0.014109
     5  H    0.014109
 Sum of APT charges =   0.00000
 APT charges with hydrogens summed into heavy atoms:
               1
     1  C    0.000000
 Electronic spatial extent (au):  <R**2>=             35.4879
 Charge=              0.0000 electrons
 Dipole moment (field-independent basis, Debye):
    X=              0.0000    Y=              0.0000    Z=              0.0000  Tot=              0.0000
 Quadrupole moment (field-independent basis, Debye-Ang):
   XX=             -8.2530   YY=             -8.2530   ZZ=             -8.2530
   XY=              0.0000   XZ=              0.0000   YZ=              0.0000
 Traceless Quadrupole moment (field-independent basis, Debye-Ang):
   XX=              0.0000   YY=              0.0000   ZZ=              0.0000
   XY=              0.0000   XZ=              0.0000   YZ=              0.0000
 Octapole moment (field-independent basis, Debye-Ang**2):
  XXX=              0.0000  YYY=              0.0000  ZZZ=              0.0000  XYY=              0.0000
  XXY=              0.0000  XXZ=              0.0000  XZZ=              0.0000  YZZ=              0.0000
  YYZ=              0.0000  XYZ=              0.7448
 Hexadecapole moment (field-independent basis, Debye-Ang**3):
 XXXX=            -15.2581 YYYY=            -15.2581 ZZZZ=            -15.2581 XXXY=              0.0000
 XXXZ=              0.0000 YYYX=              0.0000 YYYZ=              0.0000 ZZZX=              0.0000
 ZZZY=              0.0000 XXYY=             -4.6274 XXZZ=             -4.6274 YYZZ=             -4.6274
 XXYZ=              0.0000 YYXZ=              0.0000 ZZXY=              0.0000
 N-N= 1.339241167632D+01 E-N=-1.193409864302D+02  KE= 3.987417749304D+01
 Symmetry A    KE= 3.414116356062D+01
 Symmetry B1   KE= 1.911004644140D+00
 Symmetry B2   KE= 1.911004644140D+00
 Symmetry B3   KE= 1.911004644140D+00
  Exact polarizability:  11.526   0.000  11.526   0.000   0.000  11.526
 Approx polarizability:  13.481   0.000  13.481   0.000   0.000  13.481
 Calling FoFJK, ICntrl=    100127 FMM=F ISym2X=1 I1Cent= 0 IOpClX= 0 NMat=1 NMatS=1 NMatT=0.
 Full mass-weighted force constant matrix:
 Low frequencies ---   -0.0011   -0.0009   -0.0004   88.8606   88.8606   88.8606
 Low frequencies --- 1414.1605 1414.1605 1414.1605
 Diagonal vibrational polarizability:
        0.3982657       0.3982657       0.3982657
 Harmonic frequencies (cm**-1), IR intensities (KM/Mole), Raman scattering
 activities (A**4/AMU), depolarization ratios for plane and unpolarized
 incident light, reduced masses (AMU), force constants (mDyne/A),
 and normal coordinates:
                      1                      2                      3
                     T2                     T2                     T2
 Frequencies --   1414.1605              1414.1605              1414.1605
 Red. masses --      1.1829                 1.1829                 1.1829
 Frc consts  --      1.3938                 1.3938                 1.3938
 IR Inten    --     24.6370                24.6370                24.6370
  Atom  AN      X      Y      Z        X      Y      Z        X      Y      Z
     1   6    -0.01  -0.07   0.11    -0.06   0.10   0.05     0.11   0.04   0.04
     2   1     0.11   0.37  -0.46     0.45  -0.30  -0.10    -0.17   0.14   0.16
     3   1    -0.28  -0.01  -0.17     0.25  -0.50  -0.23    -0.32  -0.01  -0.41
     4   1     0.35   0.03  -0.21     0.10  -0.28  -0.45    -0.33  -0.41   0.00
     5   1    -0.03   0.42  -0.42    -0.10  -0.08   0.12    -0.49  -0.26  -0.24
                      4                      5                      6
                      E                      E                     A1
 Frequencies --   1640.6588              1640.6588              3048.5146
 Red. masses --      1.0078                 1.0078                 1.0078
 Frc consts  --      1.5983                 1.5983                 5.5184
 IR Inten    --      0.0000                 0.0000                 0.0000
  Atom  AN      X      Y      Z        X      Y      Z        X      Y      Z
     1   6     0.00   0.00   0.00     0.00   0.00   0.00     0.00   0.00   0.00
     2   1    -0.35   0.36  -0.01    -0.21  -0.20   0.41    -0.29  -0.29  -0.29
     3   1     0.35  -0.36  -0.01     0.21   0.20   0.41     0.29   0.29  -0.29
     4   1     0.35   0.36   0.01     0.21  -0.20  -0.41     0.29  -0.29   0.29
     5   1    -0.35  -0.36   0.01    -0.21   0.20  -0.41    -0.29   0.29   0.29
                      7                      8                      9
                     T2                     T2                     T2
 Frequencies --   3148.7407              3148.7407              3148.7407
 Red. masses --      1.0982                 1.0982                 1.0982
 Frc consts  --      6.4154                 6.4154                 6.4154
 IR Inten    --     24.5866                24.5866                24.5866
  Atom  AN      X      Y      Z        X      Y      Z        X      Y      Z
     1   6     0.09   0.01   0.01    -0.02   0.02   0.09     0.01  -0.09   0.02
     2   1    -0.35  -0.37  -0.37    -0.29  -0.28  -0.26     0.20   0.18   0.21
     3   1    -0.25  -0.27   0.28     0.28   0.29  -0.26     0.32   0.30  -0.32
     4   1    -0.28   0.30  -0.30    -0.18   0.18  -0.15    -0.37   0.35  -0.37
     5   1    -0.18   0.21   0.21     0.39  -0.39  -0.37    -0.25   0.23   0.26

 -------------------
 - Thermochemistry -
 -------------------
 Temperature   298.150 Kelvin.  Pressure   1.00000 Atm.
 Atom     1 has atomic number  6 and mass  12.00000
 Atom     2 has atomic number  1 and mass   1.00783
 Atom     3 has atomic number  1 and mass   1.00783
 Atom     4 has atomic number  1 and mass   1.00783
 Atom     5 has atomic number  1 and mass   1.00783
 Molecular mass:    16.03130 amu.
 Principal axes and moments of inertia in atomic units:
                           1         2         3
     Eigenvalues --    11.47592  11.47592  11.47592
           X           -0.15719   0.11154   0.98125
           Y            0.80026  -0.56783   0.19274
           Z            0.57868   0.81556   0.00000
 This molecule is a spherical top.
 Rotational symmetry number 12.
 Rotational temperatures (Kelvin)      7.54744     7.54744     7.54744
 Rotational constants (GHZ):         157.26331   157.26331   157.26331
 Zero-point vibrational energy     119737.4 (Joules/Mol)
                                   28.61793 (Kcal/Mol)
 Vibrational temperatures:   2034.66  2034.66  2034.66  2360.54  2360.54
          (Kelvin)           4386.13  4530.33  4530.33  4530.33
 
 Zero-point correction=                           0.045606 (Hartree/Particle)
 Thermal correction to Energy=                    0.048465
 Thermal correction to Enthalpy=                  0.049409
 Thermal correction to Gibbs Free Energy=         0.028283
 Sum of electronic and zero-point Energies=            -40.255996
 Sum of electronic and thermal Energies=               -40.253137
 Sum of electronic and thermal Enthalpies=             -40.252193
 Sum of electronic and thermal Free Energies=          -40.273319
 
                     E (Thermal)             CV                S
                      KCal/Mol        Cal/Mol-Kelvin    Cal/Mol-Kelvin
 Total                   30.412              6.355             44.464
 Electronic               0.000              0.000              0.000
 Translational            0.889              2.981             34.261
 Rotational               0.889              2.981             10.139
 Vibrational             28.635              0.394              0.064
                       Q            Log10(Q)             Ln(Q)
 Total Bot       0.979317D-13        -13.009077        -29.954507
 Total V=0       0.928943D+08          7.967989         18.346973
 Vib (Bot)       0.105844D-20        -20.975332        -48.297486
 Vib (V=0)       0.100400D+01          0.001734          0.003993
 Electronic      0.100000D+01          0.000000          0.000000
 Translational   0.252295D+07          6.401908         14.740939
 Rotational      0.366730D+02          1.564346          3.602041
 ***** Axes restored to original set *****
 -------------------------------------------------------------------
 Center     Atomic                   Forces (Hartrees/Bohr)
 Number     Number              X              Y              Z
 -------------------------------------------------------------------
      1        6           0.000000000    0.000000000    0.000000000
      2        1          -0.000055547    0.000157116    0.000000000
      3        1          -0.000055550   -0.000078557   -0.000136066
      4        1          -0.000055550   -0.000078557    0.000136066
      5        1           0.000166646   -0.000000002    0.000000000
 -------------------------------------------------------------------
 Cartesian Forces:  Max     0.000166646 RMS     0.000086056
 FormGI is forming the generalized inverse of G from B-inverse, IUseBI=4.

 GradGradGradGradGradGradGradGradGradGradGradGradGradGradGradGradGradGrad
 Berny optimization.
 Internal  Forces:  Max     0.000166646 RMS     0.000089076
 Search for a local minimum.
 Step number   1 out of a maximum of    2
 All quantities printed in internal units (Hartrees-Bohrs-Radians)
 Second derivative matrix not updated -- analytic derivatives used.
 The second derivative matrix:
                          R1        R2        R3        R4        A1
           R1           0.34670
           R2           0.00258   0.34670
           R3           0.00258   0.00258   0.34670
           R4           0.00258   0.00258   0.00258   0.34670
           A1           0.00236   0.00236  -0.00148  -0.00323   0.02167
           A2           0.00369  -0.00095   0.00411  -0.00685  -0.00958
           A3           0.00722  -0.00579  -0.00641   0.00499  -0.01435
           A4          -0.00095   0.00369   0.00411  -0.00685  -0.00958
           A5          -0.00579   0.00722  -0.00641   0.00499  -0.01435
           A6          -0.00652  -0.00652   0.00608   0.00696   0.02619
           D1          -0.00456  -0.00456  -0.00322   0.01235  -0.01481
           D2           0.00376   0.00376  -0.00967   0.00215   0.00897
           D3          -0.00495   0.00871  -0.00483   0.00107   0.00448
           D4          -0.00871   0.00495   0.00483  -0.00107  -0.00448
                          A2        A3        A4        A5        A6
           A2           0.04089
           A3          -0.02483   0.07989
           A4          -0.00222   0.02714   0.04089
           A5           0.02714  -0.03868  -0.02483   0.07989
           A6          -0.03140  -0.02917  -0.03140  -0.02917   0.09495
           D1          -0.01195   0.01616  -0.01195   0.01616   0.00638
           D2          -0.01032   0.00766  -0.01032   0.00766  -0.00364
           D3          -0.01565  -0.00065   0.00532   0.00831  -0.00182
           D4          -0.00532  -0.00831   0.01565   0.00065   0.00182
                          D1        D2        D3        D4
           D1           0.03277
           D2           0.00166   0.02036
           D3           0.00083   0.01018   0.02067
           D4          -0.00083  -0.01018   0.01049   0.02067
 ITU=  0
     Eigenvalues ---    0.04152   0.04677   0.07102   0.14407   0.14466
     Eigenvalues ---    0.34551   0.34553   0.34594   0.35445
 Angle between quadratic step and forces=   0.00 degrees.
 Linear search not attempted -- first point.
 Iteration  1 RMS(Cart)=  0.00025131 RMS(Int)=  0.00000000
 Iteration  2 RMS(Cart)=  0.00000000 RMS(Int)=  0.00000000
 ClnCor:  largest displacement from symmetrization is 2.44D-13 for atom     5.
 Variable       Old X    -DE/DX   Delta X   Delta X   Delta X     New X
                                 (Linear)    (Quad)   (Total)
    R1        2.06641  -0.00017   0.00000  -0.00047  -0.00047   2.06594
    R2        2.06641  -0.00017   0.00000  -0.00047  -0.00047   2.06594
    R3        2.06641  -0.00017   0.00000  -0.00047  -0.00047   2.06594
    R4        2.06641  -0.00017   0.00000  -0.00047  -0.00047   2.06594
    A1        1.91063   0.00000   0.00000   0.00000   0.00000   1.91063
    A2        1.91063   0.00000   0.00000   0.00000   0.00000   1.91063
    A3        1.91063   0.00000   0.00000   0.00000   0.00000   1.91063
    A4        1.91063   0.00000   0.00000   0.00000   0.00000   1.91063
    A5        1.91063   0.00000   0.00000   0.00000   0.00000   1.91063
    A6        1.91063   0.00000   0.00000   0.00000   0.00000   1.91063
    D1       -2.09440   0.00000   0.00000   0.00000   0.00000  -2.09440
    D2        2.09440   0.00000   0.00000   0.00000   0.00000   2.09440
    D3       -2.09440   0.00000   0.00000   0.00000   0.00000  -2.09440
    D4        2.09440   0.00000   0.00000   0.00000   0.00000   2.09440
         Item               Value     Threshold  Converged?
 Maximum Force            0.000167     0.000450     YES
 RMS     Force            0.000089     0.000300     YES
 Maximum Displacement     0.000470     0.001800     YES
 RMS     Displacement     0.000251     0.001200     YES
 Predicted change in Energy=-1.566999D-07
 Optimization completed.
    -- Stationary point found.
                           ----------------------------
                           !   Optimized Parameters   !
                           ! (Angstroms and Degrees)  !
 --------------------------                            --------------------------
 ! Name  Definition              Value          Derivative Info.                !
 --------------------------------------------------------------------------------
 ! R1    R(1,2)                  1.0935         -DE/DX =   -0.0002              !
 ! R2    R(1,3)                  1.0935         -DE/DX =   -0.0002              !
 ! R3    R(1,4)                  1.0935         -DE/DX =   -0.0002              !
 ! R4    R(1,5)                  1.0935         -DE/DX =   -0.0002              !
 ! A1    A(2,1,3)              109.4712         -DE/DX =    0.0                 !
 ! A2    A(2,1,4)              109.4712         -DE/DX =    0.0                 !
 ! A3    A(2,1,5)              109.4712         -DE/DX =    0.0                 !
 ! A4    A(3,1,4)              109.4712         -DE/DX =    0.0                 !
 ! A5    A(3,1,5)              109.4712         -DE/DX =    0.0                 !
 ! A6    A(4,1,5)              109.4712         -DE/DX =    0.0                 !
 ! D1    D(2,1,4,3)           -120.0            -DE/DX =    0.0                 !
 ! D2    D(2,1,5,3)            120.0            -DE/DX =    0.0                 !
 ! D3    D(2,1,5,4)           -120.0            -DE/DX =    0.0                 !
 ! D4    D(3,1,5,4)            120.0            -DE/DX =    0.0                 !
 --------------------------------------------------------------------------------
 GradGradGradGradGradGradGradGradGradGradGradGradGradGradGradGradGradGrad

 1\1\GINC-WORK-PC\Freq\RB3LYP\3-21G\C1H4\SKY\08-Jun-2019\0\\#N Geom=All
 Check Guess=TCheck SCRF=Check GenChk RB3LYP/3-21G Freq\\Title Card Req
 uired\\0,1\C,0.00877438,-0.441355435,0.728099701\H,0.3732611938,-1.472
 3195707,0.7280987891\H,0.3732806754,0.0741194826,1.6209370078\H,0.3732
 791841,0.0741205348,-0.1647376072\H,-1.0847235333,-0.4413421866,0.7281
 006143\\Version=ES64L-G09RevD.01\State=1-A1\HF=-40.3016014\RMSD=2.449e
 -18\RMSF=8.606e-05\ZeroPoint=0.0456056\Thermal=0.0484646\Dipole=0.,0.,
 0.\DipoleDeriv=-0.0564353,0.,0.,0.,-0.0564353,0.,0.,0.,-0.0564353,0.06
 6722,0.0744016,0.,0.0744016,-0.1174215,-0.0000002,0.,-0.0000002,0.0930
 26,0.0667192,-0.0372023,-0.0644368,-0.0372023,0.0404155,-0.0911248,-0.
 0644368,-0.0911248,-0.0648083,0.0667195,-0.0372022,0.0644365,-0.037202
 2,0.0404153,0.091125,0.0644365,0.091125,-0.0648083,-0.1437255,0.000002
 9,0.0000002,0.0000029,0.093026,0.,0.0000002,0.,0.093026\Polar=11.52550
 85,0.,11.5255085,0.,0.,11.5255085\PG=TD [O(C1),4C3(H1)]\NImag=0\\0.551
 42649,0.,0.55142649,0.,0.,0.55142649,-0.07885253,0.08343902,0.00000007
 ,0.08276153,0.08343902,-0.28536382,-0.00000021,-0.09331309,0.31371110,
 0.00000007,-0.00000021,-0.04935352,-0.00000008,0.00000023,0.04977164,-
 0.07885568,-0.04172116,-0.07226387,0.00335166,0.00544346,0.01140892,0.
 08276506,-0.04172116,-0.10835446,-0.10219360,-0.01260280,-0.01488921,-
 0.02818890,0.04665839,0.11575467,-0.07226387,-0.10219360,-0.22635973,0
 .00099027,0.00128059,0.00064608,0.08081548,0.11428706,0.24772454,-0.07
 885544,-0.04172108,0.07226357,0.00335164,0.00544347,-0.01140892,0.0033
 5191,0.00715895,-0.01041919,0.08276479,-0.04172108,-0.10835470,0.10219
 381,-0.01260275,-0.01488925,0.02818890,0.00715891,0.00841365,-0.014734
 55,0.04665830,0.11575494,0.07226357,0.10219381,-0.22635973,-0.00099029
 ,-0.00128062,0.00064614,0.01041916,0.01473458,-0.02265703,-0.08081515,
 -0.11428729,0.24772454,-0.31486283,0.00000322,0.00000022,-0.01061231,-
 0.00101286,0.,-0.01061295,0.00050662,0.00087731,-0.01061290,0.00050662
 ,-0.00087729,0.34670098,0.00000322,-0.04935352,0.,0.03507961,0.0014311
 8,-0.00000003,-0.01753960,-0.00092465,0.00136050,-0.01753963,-0.000924
 65,-0.00136047,-0.00000360,0.04977164,0.00000022,0.,-0.04935352,0.0000
 0003,0.,-0.00171034,-0.03037969,0.00136087,0.00064614,0.03037969,-0.00
 136087,0.00064608,-0.00000025,0.,0.04977164\\0.,0.,0.,0.00005555,-0.00
 015712,0.,0.00005555,0.00007856,0.00013607,0.00005555,0.00007856,-0.00
 013607,-0.00016665,0.,0.\\\@


 ALL OUR THINKING ABOUT NATURE MUST NECESSARILY MOVE IN CIRCLES OR SPIRALS;
 FOR WE CAN ONLY UNDERSTAND NATURE IF WE THINK ABOUT HER, AND WE CAN ONLY
 THINK BECAUSE OUR BRAIN IS BUILT IN ACCORDANCE WITH NATURE'S LAWS.

                                             -- TIMOTHY FERRIS, "GALAXIES"
 Job cpu time:       0 days  0 hours  0 minutes  5.8 seconds.
 File lengths (MBytes):  RWF=      5 Int=      0 D2E=      0 Chk=      1 Scr=      1
 Normal termination of Gaussian 09 at Sat Jun  8 21:09:12 2019.
