{"basedir": ".", "absfilename": "/home/sky/atomse/obgmx/ch4.com", "maxco
Force     RB3LYP                                                      LANL2DZ             
Number of atoms                            I                5
Info1-9                                    I   N=           9
          17          14           0           0           0         100
           5          18        -502
Charge                                     I                0
Multiplicity                               I                1
Number of electrons                        I               10
Number of alpha electrons                  I                5
Number of beta electrons                   I                5
Number of basis functions                  I               17
Number of independent functions            I               17
Number of point charges in /Mol/           I                0
Number of translation vectors              I                0
Atomic numbers                             I   N=           5
           6           1           1           1           1
Nuclear charges                            R   N=           5
  6.00000000E+00  1.00000000E+00  1.00000000E+00  1.00000000E+00  1.00000000E+00
Current cartesian coordinates              R   N=          15
  7.84148339E-40 -6.34172621E-24  6.34171367E-24  1.16740621E+00  1.16740621E+00
  1.16740621E+00 -1.16740621E+00 -1.16740621E+00  1.16740621E+00 -1.16740621E+00
  1.16740621E+00 -1.16740621E+00  1.16740621E+00 -1.16740621E+00 -1.16740621E+00
Force Field                                I                0
Int Atom Types                             I   N=           5
           0           0           0           0           0
MM charges                                 R   N=           5
  0.00000000E+00  0.00000000E+00  0.00000000E+00  0.00000000E+00  0.00000000E+00
Integer atomic weights                     I   N=           5
          12           1           1           1           1
Real atomic weights                        R   N=           5
  1.20000000E+01  1.00782504E+00  1.00782504E+00  1.00782504E+00  1.00782504E+00
Atom fragment info                         I   N=           5
           0           0           0           0           0
Atom residue num                           I   N=           5
           0           0           0           0           0
Nuclear spins                              I   N=           5
           0           1           1           1           1
Nuclear ZEff                               R   N=           5
 -3.60000000E+00 -1.00000000E+00 -1.00000000E+00 -1.00000000E+00 -1.00000000E+00
Nuclear ZNuc                               R   N=           5
  6.00000000E+00  1.00000000E+00  1.00000000E+00  1.00000000E+00  1.00000000E+00
Nuclear QMom                               R   N=           5
  0.00000000E+00  0.00000000E+00  0.00000000E+00  0.00000000E+00  0.00000000E+00
Nuclear GFac                               R   N=           5
  0.00000000E+00  2.79284600E+00  2.79284600E+00  2.79284600E+00  2.79284600E+00
MicOpt                                     I   N=           5
          -1          -1          -1          -1          -1
Number of contracted shells                I               13
Number of primitive shells                 I               31
Pure/Cartesian d shells                    I                0
Pure/Cartesian f shells                    I                0
Highest angular momentum                   I                1
Largest degree of contraction              I                7
Shell types                                I   N=          13
           0           0           0           1           1           0
           0           0           0           0           0           0
           0
Number of primitives per shell             I   N=          13
           7           2           1           4           1           3
           1           3           1           3           1           3
           1
Shell to atom map                          I   N=          13
           1           1           1           1           1           2
           2           3           3           4           4           5
           5
Primitive exponents                        R   N=          31
  4.23300000E+03  6.34900000E+02  1.46100000E+02  4.25000000E+01  1.41900000E+01
  5.14800000E+00  1.96700000E+00  5.14800000E+00  4.96200000E-01  1.53300000E-01
  1.81600000E+01  3.98600000E+00  1.14300000E+00  3.59400000E-01  1.14600000E-01
  1.92406000E+01  2.89920000E+00  6.53400000E-01  1.77600000E-01  1.92406000E+01
  2.89920000E+00  6.53400000E-01  1.77600000E-01  1.92406000E+01  2.89920000E+00
  6.53400000E-01  1.77600000E-01  1.92406000E+01  2.89920000E+00  6.53400000E-01
  1.77600000E-01
Contraction coefficients                   R   N=          31
  1.21999969E-03  9.34199761E-03  4.54519884E-02  1.54656960E-01  3.58865908E-01
  4.38631888E-01  1.45917963E-01 -1.68366956E-01  1.06009072E+00  1.00000000E+00
  1.85389998E-02  1.15435999E-01  3.86187996E-01  6.40113993E-01  1.00000000E+00
  3.28280770E-02  2.31208542E-01  8.17239916E-01  1.00000000E+00  3.28280770E-02
  2.31208542E-01  8.17239916E-01  1.00000000E+00  3.28280770E-02  2.31208542E-01
  8.17239916E-01  1.00000000E+00  3.28280770E-02  2.31208542E-01  8.17239916E-01
  1.00000000E+00
Coordinates of each shell                  R   N=          39
  3.86017619E-24 -8.27180613E-24  4.41162993E-24  3.86017619E-24 -8.27180613E-24
  4.41162993E-24  3.86017619E-24 -8.27180613E-24  4.41162993E-24  3.86017619E-24
 -8.27180613E-24  4.41162993E-24  3.86017619E-24 -8.27180613E-24  4.41162993E-24
  1.16740621E+00  1.16740621E+00  1.16740621E+00  1.16740621E+00  1.16740621E+00
  1.16740621E+00 -1.16740621E+00 -1.16740621E+00  1.16740621E+00 -1.16740621E+00
 -1.16740621E+00  1.16740621E+00 -1.16740621E+00  1.16740621E+00 -1.16740621E+00
 -1.16740621E+00  1.16740621E+00 -1.16740621E+00  1.16740621E+00 -1.16740621E+00
 -1.16740621E+00  1.16740621E+00 -1.16740621E+00 -1.16740621E+00
Constraint Structure                       R   N=          15
  3.86017619E-24 -8.27180613E-24  4.41162993E-24  1.16740621E+00  1.16740621E+00
  1.16740621E+00 -1.16740621E+00 -1.16740621E+00  1.16740621E+00 -1.16740621E+00
  1.16740621E+00 -1.16740621E+00  1.16740621E+00 -1.16740621E+00 -1.16740621E+00
Num ILSW                                   I              100
ILSW                                       I   N=         100
           0           0           0           0           2           0
           0           0           0           0         402          -1
           0           0           0           0           2           0
           0           0           0           0           1           0
           1           0           0           0           0           0
           0           0      100000           0          -1           0
           0           0           0           0           0           0
           0           0           0           1           0           0
           0           0           1           0           0           0
           0           0           4          41           0           0
           0           0           5           0           0           0
           0           0           0           5           0           0
           0           0           0           0           0           0
           0           0           0           0           0           0
           0           0           0           0           0           0
           0           0           0           0           0           0
           0           0           0           0
Num RLSW                                   I               41
RLSW                                       R   N=          41
  8.00000000E-01  7.20000000E-01  1.00000000E+00  8.10000000E-01  2.00000000E-01
  0.00000000E+00  0.00000000E+00  1.00000000E+00  0.00000000E+00  0.00000000E+00
  0.00000000E+00  0.00000000E+00  1.00000000E+00  0.00000000E+00  0.00000000E+00
  0.00000000E+00  0.00000000E+00  1.00000000E+00  0.00000000E+00  0.00000000E+00
  0.00000000E+00  0.00000000E+00  1.00000000E+00  0.00000000E+00  0.00000000E+00
  0.00000000E+00  0.00000000E+00  1.00000000E+00  0.00000000E+00  0.00000000E+00
  0.00000000E+00  0.00000000E+00  1.00000000E+00  0.00000000E+00  0.00000000E+00
  0.00000000E+00  0.00000000E+00  0.00000000E+00  1.00000000E+00  1.00000000E+00
  0.00000000E+00
ECP-MxAtEC                                 I           250000
ECP-MaxLECP                                I               10
ECP-MaxAtL                                 I          2250000
ECP-MxTECP                                 I         11250000
ECP-LenNCZ                                 I                0
ECP-KFirst                                 I   N=          50
           0           0           0           0           0           0
           0           0           0           0           0           0
           0           0           0           0           0           0
           0           0           0           0           0           0
           0           0           0           0           0           0
           0           0           0           0           0           0
           0           0           0           0           0           0
           0           0           0           0           0           0
           0           0
ECP-KLast                                  I   N=          50
           0           0           0           0           0           0
           0           0           0           0           0           0
           0           0           0           0           0           0
           0           0           0           0           0           0
           0           0           0           0           0           0
           0           0           0           0           0           0
           0           0           0           0           0           0
           0           0           0           0           0           0
           0           0
ECP-LMax                                   I   N=           5
           0           0           0           0           0
ECP-LPSkip                                 I   N=           5
           1           1           1           1           1
ECP-RNFroz                                 R   N=           5
  0.00000000E+00  0.00000000E+00  0.00000000E+00  0.00000000E+00  0.00000000E+00
ECP-NLP                                    I                0
ECP-CLP1                                   R      0.000000000000000E+00
ECP-CLP2                                   R      0.000000000000000E+00
ECP-ZLP                                    R      0.000000000000000E+00
MxBond                                     I                4
NBond                                      I   N=           5
           4           1           1           1           1
IBond                                      I   N=          20
           2           3           4           5           1           0
           0           0           1           0           0           0
           1           0           0           0           1           0
           0           0
RBond                                      R   N=          20
  1.00000000E+00  1.00000000E+00  1.00000000E+00  1.00000000E+00  1.00000000E+00
  0.00000000E+00  0.00000000E+00  0.00000000E+00  1.00000000E+00  0.00000000E+00
  0.00000000E+00  0.00000000E+00  1.00000000E+00  0.00000000E+00  0.00000000E+00
  0.00000000E+00  1.00000000E+00  0.00000000E+00  0.00000000E+00  0.00000000E+00
Virial Ratio                               R      2.004279711154741E+00
SCF Energy                                 R     -4.051280064403718E+01
Total Energy                               R     -4.051280064403718E+01
RMS Force                                  R      9.274433475713561E-03
RMS Density                                R      1.126824540611203E-09
External E-field                           R   N=          35
  0.00000000E+00  0.00000000E+00  0.00000000E+00  0.00000000E+00  0.00000000E+00
  0.00000000E+00  0.00000000E+00  0.00000000E+00  0.00000000E+00  0.00000000E+00
  0.00000000E+00  0.00000000E+00  0.00000000E+00  0.00000000E+00  0.00000000E+00
  0.00000000E+00  0.00000000E+00  0.00000000E+00  0.00000000E+00  0.00000000E+00
  0.00000000E+00  0.00000000E+00  0.00000000E+00  0.00000000E+00  0.00000000E+00
  0.00000000E+00  0.00000000E+00  0.00000000E+00  0.00000000E+00  0.00000000E+00
  0.00000000E+00  0.00000000E+00  0.00000000E+00  0.00000000E+00  0.00000000E+00
IOpCl                                      I                0
IROHF                                      I                0
Alpha Orbital Energies                     R   N=          17
 -1.01546656E+01 -6.99619608E-01 -3.93670551E-01 -3.93670551E-01 -3.93670551E-01
  1.59035758E-01  1.91928890E-01  1.91928890E-01  1.91928890E-01  3.01271845E-01
  3.01271845E-01  3.01271845E-01  9.39634455E-01  1.07444463E+00  1.12741738E+00
  1.12741738E+00  1.12741738E+00
Alpha MO coefficients                      R   N=         289
  9.97559633E-01  1.57154189E-02 -1.65453016E-02  0.00000000E+00  0.00000000E+00
  0.00000000E+00  0.00000000E+00  0.00000000E+00  0.00000000E+00 -5.30028752E-04
  3.79777325E-03 -5.30028752E-04  3.79777325E-03 -5.30028752E-04  3.79777325E-03
 -5.30028752E-04  3.79777325E-03 -2.07767412E-01  4.14566535E-01  3.74372990E-01
  0.00000000E+00  0.00000000E+00  0.00000000E+00  0.00000000E+00  0.00000000E+00
  0.00000000E+00  1.35975423E-01  2.25838891E-02  1.35975423E-01  2.25838891E-02
  1.35975423E-01  2.25838891E-02  1.35975423E-01  2.25838891E-02  0.00000000E+00
  0.00000000E+00  0.00000000E+00  5.31344968E-01  0.00000000E+00  0.00000000E+00
  1.45491242E-01  0.00000000E+00  0.00000000E+00  1.70208527E-01  1.14988001E-01
 -1.70208527E-01 -1.14988001E-01 -1.70208527E-01 -1.14988001E-01  1.70208527E-01
  1.14988001E-01  0.00000000E+00  0.00000000E+00  0.00000000E+00  0.00000000E+00
  0.00000000E+00  5.31344968E-01  0.00000000E+00  0.00000000E+00  1.45491242E-01
  1.70208527E-01  1.14988001E-01  1.70208527E-01  1.14988001E-01 -1.70208527E-01
 -1.14988001E-01 -1.70208527E-01 -1.14988001E-01  0.00000000E+00  0.00000000E+00
  0.00000000E+00  0.00000000E+00  5.31344968E-01  0.00000000E+00  0.00000000E+00
  1.45491242E-01  0.00000000E+00  1.70208527E-01  1.14988001E-01 -1.70208527E-01
 -1.14988001E-01  1.70208527E-01  1.14988001E-01 -1.70208527E-01 -1.14988001E-01
 -1.60641982E-01  3.19975081E-01  3.22974559E+00  0.00000000E+00  0.00000000E+00
  0.00000000E+00  0.00000000E+00  0.00000000E+00  0.00000000E+00 -1.17420839E-03
 -1.26882788E+00 -1.17420839E-03 -1.26882788E+00 -1.17420839E-03 -1.26882788E+00
 -1.17420839E-03 -1.26882788E+00  0.00000000E+00  0.00000000E+00  0.00000000E+00
  0.00000000E+00  0.00000000E+00  1.57091369E-01  0.00000000E+00  0.00000000E+00
  1.96752036E+00 -9.70685216E-02 -1.14187800E+00 -9.70685216E-02 -1.14187800E+00
  9.70685216E-02  1.14187800E+00  9.70685216E-02  1.14187800E+00  0.00000000E+00
  0.00000000E+00  0.00000000E+00  0.00000000E+00  1.57091369E-01  0.00000000E+00
  0.00000000E+00  1.96752036E+00  0.00000000E+00 -9.70685216E-02 -1.14187800E+00
  9.70685216E-02  1.14187800E+00 -9.70685216E-02 -1.14187800E+00  9.70685216E-02
  1.14187800E+00  0.00000000E+00  0.00000000E+00  0.00000000E+00  1.57091369E-01
  0.00000000E+00  0.00000000E+00  1.96752036E+00  0.00000000E+00  0.00000000E+00
 -9.70685216E-02 -1.14187800E+00  9.70685216E-02  1.14187800E+00  9.70685216E-02
  1.14187800E+00 -9.70685216E-02 -1.14187800E+00  0.00000000E+00  0.00000000E+00
  0.00000000E+00  9.88855429E-01  0.00000000E+00  0.00000000E+00 -5.66099462E-01
  0.00000000E+00  0.00000000E+00  3.05010576E-02 -3.75312093E-01 -3.05010576E-02
  3.75312093E-01 -3.05010576E-02  3.75312093E-01  3.05010576E-02 -3.75312093E-01
  0.00000000E+00  0.00000000E+00  0.00000000E+00  0.00000000E+00  0.00000000E+00
  9.88855429E-01  0.00000000E+00  0.00000000E+00 -5.66099462E-01  3.05010576E-02
 -3.75312093E-01  3.05010576E-02 -3.75312093E-01 -3.05010576E-02  3.75312093E-01
 -3.05010576E-02  3.75312093E-01  0.00000000E+00  0.00000000E+00  0.00000000E+00
  0.00000000E+00  9.88855429E-01  0.00000000E+00  0.00000000E+00 -5.66099462E-01
  0.00000000E+00  3.05010576E-02 -3.75312093E-01 -3.05010576E-02  3.75312093E-01
  3.05010576E-02 -3.75312093E-01 -3.05010576E-02  3.75312093E-01 -5.58470711E-02
 -1.50848655E+00  5.01294943E+00  0.00000000E+00  0.00000000E+00  0.00000000E+00
  0.00000000E+00  0.00000000E+00  0.00000000E+00 -4.83845303E-01 -9.90845714E-01
 -4.83845303E-01 -9.90845714E-01 -4.83845303E-01 -9.90845714E-01 -4.83845303E-01
 -9.90845714E-01  1.06689823E-01 -1.68853717E+00  4.27732378E+00  0.00000000E+00
  0.00000000E+00  0.00000000E+00  0.00000000E+00  0.00000000E+00  0.00000000E+00
  5.32394119E-01 -1.32715938E+00  5.32394119E-01 -1.32715938E+00  5.32394119E-01
 -1.32715938E+00  5.32394119E-01 -1.32715938E+00  0.00000000E+00  0.00000000E+00
  0.00000000E+00  0.00000000E+00  5.63119116E-01  0.00000000E+00  0.00000000E+00
 -1.17685631E+00  0.00000000E+00 -7.53249058E-01  1.23963811E+00  7.53249058E-01
 -1.23963811E+00 -7.53249058E-01  1.23963811E+00  7.53249058E-01 -1.23963811E+00
  0.00000000E+00  0.00000000E+00  0.00000000E+00  0.00000000E+00  0.00000000E+00
  5.63119116E-01  0.00000000E+00  0.00000000E+00 -1.17685631E+00 -7.53249058E-01
  1.23963811E+00 -7.53249058E-01  1.23963811E+00  7.53249058E-01 -1.23963811E+00
  7.53249058E-01 -1.23963811E+00  0.00000000E+00  0.00000000E+00  0.00000000E+00
  5.63119116E-01  0.00000000E+00  0.00000000E+00 -1.17685631E+00  0.00000000E+00
  0.00000000E+00 -7.53249058E-01  1.23963811E+00  7.53249058E-01 -1.23963811E+00
  7.53249058E-01 -1.23963811E+00 -7.53249058E-01  1.23963811E+00
Total SCF Density                          R   N=         153
  2.07658504E+00 -1.40912697E-01  3.44224772E-01 -1.88574865E-01  3.09884993E-01
  2.80857765E-01  0.00000000E+00  0.00000000E+00  0.00000000E+00  5.64654949E-01
  0.00000000E+00  0.00000000E+00  0.00000000E+00 -1.81711250E-17  5.64654949E-01
  0.00000000E+00  0.00000000E+00  0.00000000E+00 -4.19061290E-17  7.83616157E-18
  5.64654949E-01  0.00000000E+00  0.00000000E+00  0.00000000E+00  1.54612079E-01
 -4.97556146E-18 -1.14746072E-17  4.23354031E-02  0.00000000E+00  0.00000000E+00
  0.00000000E+00 -4.97556146E-18  1.54612079E-01  2.14567362E-18 -1.36239291E-18
  4.23354031E-02  0.00000000E+00  0.00000000E+00  0.00000000E+00 -1.14746072E-17
  2.14567362E-18  1.54612079E-01 -3.14194158E-18  5.87521741E-19  4.23354031E-02
 -5.75599942E-02  1.12725061E-01  1.01828590E-01  1.80878889E-01  1.80878889E-01
  1.80878889E-01  4.95277001E-02  4.95277001E-02  4.95277001E-02  2.10804850E-01
 -1.80738182E-03  1.88444165E-02  1.67839256E-02  1.22196591E-01  1.22196591E-01
  1.22196591E-01  3.34594942E-02  3.34594942E-02  3.34594942E-02  1.23569312E-01
  8.03823523E-02 -5.75599942E-02  1.12725061E-01  1.01828590E-01 -1.80878889E-01
 -1.80878889E-01  1.80878889E-01 -4.95277001E-02 -4.95277001E-02  4.95277001E-02
 -2.09626922E-02 -3.30061946E-02  2.10804850E-01 -1.80738182E-03  1.88444165E-02
  1.67839256E-02 -1.22196591E-01 -1.22196591E-01  1.22196591E-01 -3.34594942E-02
 -3.34594942E-02  3.34594942E-02 -3.30061946E-02 -2.53955704E-02  1.23569312E-01
  8.03823523E-02 -5.75599942E-02  1.12725061E-01  1.01828590E-01 -1.80878889E-01
  1.80878889E-01 -1.80878889E-01 -4.95277001E-02  4.95277001E-02 -4.95277001E-02
 -2.09626922E-02 -3.30061946E-02 -2.09626922E-02 -3.30061946E-02  2.10804850E-01
 -1.80738182E-03  1.88444165E-02  1.67839256E-02 -1.22196591E-01  1.22196591E-01
 -1.22196591E-01 -3.34594942E-02  3.34594942E-02 -3.34594942E-02 -3.30061946E-02
 -2.53955704E-02 -3.30061946E-02 -2.53955704E-02  1.23569312E-01  8.03823523E-02
 -5.75599942E-02  1.12725061E-01  1.01828590E-01  1.80878889E-01 -1.80878889E-01
 -1.80878889E-01  4.95277001E-02 -4.95277001E-02 -4.95277001E-02 -2.09626922E-02
 -3.30061946E-02 -2.09626922E-02 -3.30061946E-02 -2.09626922E-02 -3.30061946E-02
  2.10804850E-01 -1.80738182E-03  1.88444165E-02  1.67839256E-02  1.22196591E-01
 -1.22196591E-01 -1.22196591E-01  3.34594942E-02 -3.34594942E-02 -3.34594942E-02
 -3.30061946E-02 -2.53955704E-02 -3.30061946E-02 -2.53955704E-02 -3.30061946E-02
 -2.53955704E-02  1.23569312E-01  8.03823523E-02
Mulliken Charges                           R   N=           5
 -8.86546791E-01  2.21636698E-01  2.21636698E-01  2.21636698E-01  2.21636698E-01
ONIOM Charges                              I   N=          16
           0           0           0           0           0           0
           0           0           0           0           0           0
           0           0           0           0
ONIOM Multiplicities                       I   N=          16
           1           0           0           0           0           0
           0           0           0           0           0           0
           0           0           0           0
Atom Layers                                I   N=           5
           1           1           1           1           1
Atom Modifiers                             I   N=           5
           0           0           0           0           0
Force Field                                I                0
Int Atom Modified Types                    I   N=           5
           0           0           0           0           0
Link Atoms                                 I   N=           5
           0           0           0           0           0
Atom Modified MM Charges                   R   N=           5
  0.00000000E+00  0.00000000E+00  0.00000000E+00  0.00000000E+00  0.00000000E+00
Link Distances                             R   N=          20
  0.00000000E+00  0.00000000E+00  0.00000000E+00  0.00000000E+00  0.00000000E+00
  0.00000000E+00  0.00000000E+00  0.00000000E+00  0.00000000E+00  0.00000000E+00
  0.00000000E+00  0.00000000E+00  0.00000000E+00  0.00000000E+00  0.00000000E+00
  0.00000000E+00  0.00000000E+00  0.00000000E+00  0.00000000E+00  0.00000000E+00
Cartesian Gradient                         R   N=          15
  1.83186799E-15  3.33066907E-16  3.10862447E-15 -1.03691319E-02 -1.03691319E-02
 -1.03691319E-02  1.03691319E-02  1.03691319E-02 -1.03691319E-02  1.03691319E-02
 -1.03691319E-02  1.03691319E-02 -1.03691319E-02  1.03691319E-02  1.03691319E-02
Dipole Moment                              R   N=           3
 -6.66133815E-16 -4.44089210E-16 -6.66133815E-16
Quadrupole Moment                          R   N=           6
  2.66453526E-15  2.66453526E-15 -2.66453526E-15 -1.22200427E-15 -8.33317790E-16
 -7.22295487E-16
QEq coupling tensors                       R   N=          30
  2.26834135E-32  3.14331894E-14  5.52202634E-30 -2.56183963E-14  1.11299858E-14
  1.57772181E-30  1.38778103E-17 -1.83986178E-01  1.38777878E-17 -1.83986178E-01
 -1.83986178E-01 -5.82867088E-16 -2.82942602E-16 -1.83986178E-01  2.77555756E-16
  1.83986178E-01  1.83986178E-01  0.00000000E+00  5.86938200E-16  1.83986178E-01
 -4.16333634E-17 -1.83986178E-01  1.83986178E-01 -2.63677968E-16 -2.77555981E-17
  1.83986178E-01  0.00000000E+00  1.83986178E-01 -1.83986178E-01  0.00000000E+00
