 Entering Gaussian System, Link 0=g09
 Input=wh-CHIRAL-TD.gjf
 Output=wh-CHIRAL-TD.log
 Initial command:
 /home/scicons/Gaussian09.D01/l1.exe "/tmp/Gau-75827.inp" -scrdir="/tmp/"
 Default is to use a total of   4 processors:
                                4 via shared-memory
                                1 via Linda
 Entering Link 1 = /home/scicons/Gaussian09.D01/l1.exe PID=     75829.
  
 Copyright (c) 1988,1990,1992,1993,1995,1998,2003,2009,2013,
            Gaussian, Inc.  All Rights Reserved.
  
 This is part of the Gaussian(R) 09 program.  It is based on
 the Gaussian(R) 03 system (copyright 2003, Gaussian, Inc.),
 the Gaussian(R) 98 system (copyright 1998, Gaussian, Inc.),
 the Gaussian(R) 94 system (copyright 1995, Gaussian, Inc.),
 the Gaussian 92(TM) system (copyright 1992, Gaussian, Inc.),
 the Gaussian 90(TM) system (copyright 1990, Gaussian, Inc.),
 the Gaussian 88(TM) system (copyright 1988, Gaussian, Inc.),
 the Gaussian 86(TM) system (copyright 1986, Carnegie Mellon
 University), and the Gaussian 82(TM) system (copyright 1983,
 Carnegie Mellon University). Gaussian is a federally registered
 trademark of Gaussian, Inc.
  
 This software contains proprietary and confidential information,
 including trade secrets, belonging to Gaussian, Inc.
  
 This software is provided under written license and may be
 used, copied, transmitted, or stored only in accord with that
 written license.
  
 The following legend is applicable only to US Government
 contracts under FAR:
  
                    RESTRICTED RIGHTS LEGEND
  
 Use, reproduction and disclosure by the US Government is
 subject to restrictions as set forth in subparagraphs (a)
 and (c) of the Commercial Computer Software - Restricted
 Rights clause in FAR 52.227-19.
  
 Gaussian, Inc.
 340 Quinnipiac St., Bldg. 40, Wallingford CT 06492
  
  
 ---------------------------------------------------------------
 Warning -- This program may not be used in any manner that
 competes with the business of Gaussian, Inc. or will provide
 assistance to any competitor of Gaussian, Inc.  The licensee
 of this program is prohibited from giving any competitor of
 Gaussian, Inc. access to this program.  By using this program,
 the user acknowledges that Gaussian, Inc. is engaged in the
 business of creating and licensing software in the field of
 computational chemistry and represents and warrants to the
 licensee that it is not a competitor of Gaussian, Inc. and that
 it will not use this program in any manner prohibited above.
 ---------------------------------------------------------------
  

 Cite this work as:
 Gaussian 09, Revision D.01,
 M. J. Frisch, G. W. Trucks, H. B. Schlegel, G. E. Scuseria, 
 M. A. Robb, J. R. Cheeseman, G. Scalmani, V. Barone, B. Mennucci, 
 G. A. Petersson, H. Nakatsuji, M. Caricato, X. Li, H. P. Hratchian, 
 A. F. Izmaylov, J. Bloino, G. Zheng, J. L. Sonnenberg, M. Hada, 
 M. Ehara, K. Toyota, R. Fukuda, J. Hasegawa, M. Ishida, T. Nakajima, 
 Y. Honda, O. Kitao, H. Nakai, T. Vreven, J. A. Montgomery, Jr., 
 J. E. Peralta, F. Ogliaro, M. Bearpark, J. J. Heyd, E. Brothers, 
 K. N. Kudin, V. N. Staroverov, T. Keith, R. Kobayashi, J. Normand, 
 K. Raghavachari, A. Rendell, J. C. Burant, S. S. Iyengar, J. Tomasi, 
 M. Cossi, N. Rega, J. M. Millam, M. Klene, J. E. Knox, J. B. Cross, 
 V. Bakken, C. Adamo, J. Jaramillo, R. Gomperts, R. E. Stratmann, 
 O. Yazyev, A. J. Austin, R. Cammi, C. Pomelli, J. W. Ochterski, 
 R. L. Martin, K. Morokuma, V. G. Zakrzewski, G. A. Voth, 
 P. Salvador, J. J. Dannenberg, S. Dapprich, A. D. Daniels, 
 O. Farkas, J. B. Foresman, J. V. Ortiz, J. Cioslowski, 
 and D. J. Fox, Gaussian, Inc., Wallingford CT, 2013.
 
 ******************************************
 Gaussian 09:  ES64L-G09RevD.01 24-Apr-2013
                 6-Jun-2019 
 ******************************************
 %nproc=24
 Will use up to   24 processors via shared memory.
 %mem=90GB
 %chk=wh-CHIRAL-TD.chk
 -------------------------------------------------
 #p td=(nstates=60) b3lyp/genecp geom=connectivity
 -------------------------------------------------
 1/38=1,57=2/1;
 2/12=2,17=6,18=5,40=1/2;
 3/5=7,11=9,16=1,17=8,25=1,30=1,74=-5/1,2,8,3;
 4//1;
 5/5=2,38=5/2;
 8/6=1,10=1,108=60/1;
 9/41=60,42=1,70=2/14;
 6/7=2,8=2,9=2,10=2/1;
 99/5=1,9=1/99;
 Leave Link    1 at Thu Jun  6 11:27:19 2019, MaxMem= 12079595520 cpu:         0.8
 (Enter /home/scicons/Gaussian09.D01/l101.exe)
 -------------------
 Title Card Required
 -------------------
 Symbolic Z-matrix:
 Charge =  5 Multiplicity = 1
 Ag                    10.2561   8.1922    7.3517 
 Ag                    12.6568   6.8832    6.9532 
 Ag                    12.9809   6.4525    4.0567 
 Ag                    10.5434   7.4511    3.5833 
 Ag                    8.4721    7.147     5.5558 
 Ag                    7.7725    9.1602    8.0242 
 Ag                    8.5768    8.7638    10.8244 
 Ag                    10.95     9.8515    11.5184 
 Ag                    12.0632   9.5402    8.8603 
 N                     10.9403   4.607     4.918 
 H                     11.219    4.1626    4.2365 
 N                     12.297    1.0329    6.8615 
 H                     12.0381   1.8116    7.2311 
 H                     13.1771   1.0975    6.6845 
 C                     11.0218   5.9808    5.0549 
 C                     10.5217   6.3394    6.343 
 C                     10.085    5.0814    6.9476 
 C                     9.4703    4.7481    8.142 
 H                     9.2962    5.4155    8.7659 
 C                     9.1051    3.4285    8.4309 
 C                     8.3556    3.0717    9.6796 
 H                     8.805     3.4998    10.4251 
 H                     7.4718    3.4663    9.6153 
 C                     8.1894    1.6767    10.0111 
 H                     7.5129    1.574     10.6987 
 H                     9.0236    1.3095    10.343 
 C                     7.7387    0.9087    8.6681 
 H                     7.4983   -0.0121    8.8559 
 H                     6.9866    1.3532    8.2467 
 C                     8.9912    0.9843    7.7854 
 H                     9.7198    0.5204    8.2267 
 H                     8.816     0.5322    6.9453 
 C                     9.4114    2.4173    7.5021 
 C                     10.0519   2.6969    6.3062 
 C                     10.3403   4.0465    6.0464 
 C                     10.4555   1.6239    5.3174 
 C                     9.7249    1.395     4.1799 
 C                     8.4296    2.1609    3.9138 
 H                     7.7787    1.9117    4.5884 
 H                     8.6053    3.1097    4.013 
 C                     7.8298    1.9248    2.5604 
 H                     6.885     2.1414    2.5963 
 H                     8.2458    2.5288    1.9256 
 C                     7.9778    0.5684    2.0771 
 H                     7.4713   -0.0233    2.6552 
 H                     7.5911    0.5121    1.1893 
 C                     9.3321    0.1006    2.0169 
 H                     9.7723    0.5153    1.2585 
 H                     9.3251   -0.8575    1.8654 
 C                     10.1373   0.3907    3.2664 
 C                     11.2907  -0.2803    3.5495 
 H                     11.6098  -0.8883    2.9223 
 C                     11.9938  -0.1117    4.6866 
 H                     12.7403  -0.6398    4.8563 
 C                     11.5946   0.8657    5.6163 
 N                     9.3439    11.6479   9.9028 
 H                     9.1081    12.0298   10.6364 
 N                     11.3362   15.3737   9.6147 
 H                     11.4533   14.6205   9.1361 
 H                     11.8703   15.321    10.3371 
 C                     9.6115    10.3012   9.7795 
 C                     9.936     10.024    8.4021 
 C                     9.8349    11.3281   7.732 
 C                     10.0006   11.7402   6.4014 
 H                     10.227    11.1238   5.7429 
 C                     9.8196    13.1025   6.0734 
 C                     9.8897    13.6563   4.6698 
 H                     10.7276   14.1324   4.5598 
 H                     9.8827    12.9194   4.039 
 C                     8.8101    14.5394   4.3644 
 H                     8.0102    14.0097   4.2212 
 H                     9.0113    14.9951   3.532 
 C                     8.5217    15.5526   5.3941 
 H                     7.5868    15.4817   5.6428 
 H                     8.655     16.432    5.007 
 C                     9.3491    15.4487   6.629 
 H                     10.2203   15.8405   6.4605 
 H                     8.9263    15.9587   7.3375 
 C                     9.5264    14.0556   7.0782 
 C                     9.3393    13.6648   8.4135 
 C                     9.5038    12.3121   8.6882 
 C                     8.9922    14.6443   9.4891 
 C                     7.6331    14.7532   9.9152 
 C                     6.5886    13.9138   9.252 
 H                     6.8651    12.9845   9.2819 
 H                     6.5212    14.1727   8.3197 
 C                     5.1772    14.0473   9.9214 
 H                     4.5195    13.8349   9.2408 
 H                     5.1163    13.3524   10.5954 
 C                     4.7945    15.1649   10.488 
 H                     4.0769    14.9622   11.1085 
 H                     4.4297    15.7455   9.8019 
 C                     5.892     15.9434   11.251 
 H                     5.7112    16.8902   11.1427 
 H                     5.7952    15.7408   12.1947 
 C                     7.3011    15.7117   10.8854 
 C                     8.3275    16.4373   11.4713 
 H                     8.1255    17.0228   12.165 
 C                     9.6017    16.322    11.07 
 H                     10.2576   16.8486   11.4668 
 C                     9.9554    15.4227   10.0654 
 N                     14.7066   7.0694    2.8156 
 N                     16.8587   7.0386    2.3657 
 H                     17.6788   6.7799    2.371 
 N                     14.8317   4.9526    4.5236 
 C                     14.9656   8.0902    1.9334 
 C                     14.1413   9.0127    1.351 
 H                     13.2249   9.0008    1.5094 
 C                     14.7208   9.99      0.4974 
 H                     14.1987   10.6399   0.0852 
 C                     16.1637   9.9374    0.2909 
 H                     16.5388   10.5873  -0.2586 
 C                     17.0147   9.0106    0.8383 
 H                     17.9308   8.9883    0.6798 
 C                     16.3463   8.1103    1.6566 
 C                     15.8365   6.4692    3.0508 
 C                     15.9638   5.3264    3.9061 
 C                     17.1281   4.609     4.0203 
 H                     17.8978   4.8882    3.5792 
 C                     17.1438   3.4429    4.8147 
 H                     17.9252   2.9487    4.9152 
 C                     16.0239   3.065     5.4152 
 H                     16.0243   2.3009    5.9453 
 C                     14.8303   3.8044    5.2627 
 H                     14.0451   3.5099    5.6647 
 N                     14.8097   7.2517    6.8697 
 N                     16.8825   6.5516    7.231 
 H                     17.5345   6.0867    7.5444 
 N                     13.7139   5.1845    8.261 
 C                     15.7068   8.0666    6.1708 
 C                     15.46     9.1226    5.3025 
 H                     14.595    9.4194    5.1333 
 C                     16.5446   9.7075    4.7066 
 H                     16.4099   10.4144   4.1174 
 C                     17.771    9.2986    4.9433 
 H                     18.478    9.7402    4.5309 
 C                     18.0498   8.2312    5.7868 
 H                     18.9208   7.9405    5.9347 
 C                     16.9841   7.6307    6.3869 
 C                     15.5696   6.3559    7.4775 
 C                     15.0032   5.2354    8.2662 
 C                     15.8034   4.2916    8.8938 
 H                     16.7286   4.3832    8.9157 
 C                     15.168    3.1942    9.4943 
 H                     15.6753   2.509     9.8658 
 C                     13.8206   3.1335    9.5326 
 H                     13.3811   2.4302    9.9534 
 C                     13.1058   4.1742    8.9118 
 H                     12.1767   4.1641    8.9525 
 N                     13.7221   11.0038   7.8971 
 N                     13.967    8.8639    9.6687 
 N                     16.1653   8.9705    9.7686 
 H                     16.963    9.27      9.6518 
 C                     13.5571   12.0366   7.1072 
 H                     12.6953   12.2097   6.8037 
 C                     14.5395   12.8701   6.6983 
 H                     14.3749   13.6075   6.1561 
 C                     15.8613   12.532    7.1647 
 H                     16.5873   13.0546   6.9106 
 C                     16.0586   11.4408   7.9841 
 H                     16.9036   11.211    8.2972 
 C                     14.9239   10.6979   8.3199 
 C                     15.0331   9.4986    9.2171 
 C                     15.8316   7.897     10.5311 
 C                     16.5399   7.0574    11.2822 
 H                     17.4616   7.1506    11.3641 
 C                     15.8884   6.0745    11.9169 
 H                     16.375    5.4105    12.3497 
 C                     14.5658   6.0292    11.9406 
 H                     14.1514   5.3939    12.4787 
 C                     13.7663   6.8957    11.191 
 H                     12.838    6.8392    11.1956 
 C                     14.4261   7.8226    10.4576 
 N                     12.9423   11.3819   11.5461 
 N                     12.2262   9.2626    13.1897 
 N                     14.2361   9.1126    14.1155 
 H                     15.0553   9.2915    14.3066 
 C                     13.2944   12.4902   10.8572 
 H                     12.6503   12.8442   10.2874 
 C                     14.4901   13.1483   10.9042 
 H                     14.6454   13.9111   10.3953 
 C                     15.5581   12.5762   11.8281 
 H                     16.4146   12.9327   11.8941 
 C                     15.1381   11.4736   12.5637 
 H                     15.7223   11.0974   13.1819 
 C                     13.8907   10.9208   12.4091 
 C                     13.4854   9.7855    13.2107 
 C                     13.4922   8.0954    14.6873 
 C                     13.7957   7.1682    15.5999 
 H                     14.6591   7.0984    15.9386 
 C                     12.7908   6.3103    16.0315 
 H                     12.9431   5.6674    16.686 
 C                     11.5378   6.4659    15.4282 
 H                     10.8812   5.8672    15.7025 
 C                     11.1318   7.4253    14.4439 
 H                     10.2724   7.5165    14.1004 
 C                     12.2299   8.1968    14.0863 
 N                     8.6948    7.3139    2.0313 
 N                     10.4172   9.3755    2.5528 
 N                     9.5405    10.7005   1.0135 
 H                     9.0176    10.9735   0.3877 
 C                     7.8111    6.3332    1.8338 
 H                     7.962     5.5286    2.2752 
 C                     6.6859    6.413     1.0252 
 H                     6.0917    5.7034    0.9348 
 C                     6.5028    7.6128    0.3623 
 H                     5.7644    7.7212   -0.1925 
 C                     7.3937    8.6458    0.5103 
 H                     7.2771    9.4483    0.055 
 C                     8.4722    8.4563    1.3588 
 C                     9.466     9.5028    1.6316 
 C                     10.5942   11.4172   1.5503 
 C                     11.146    12.6408   1.2941 
 H                     10.8047   13.1907   0.6263 
 C                     12.2014   13.0254   2.0406 
 H                     12.572    13.8679   1.9073 
 C                     12.7588   12.1646   3.0294 
 H                     13.5045   12.4454   3.5089 
 C                     12.221    10.9343   3.2887 
 H                     12.5774   10.3793   3.9444 
 C                     11.128    10.5488   2.5387 
 N                     6.6329    5.5976    5.5546 
 N                     6.7508    8.1989    4.6303 
 N                     4.6804    8.1071    3.8203 
 H                     3.8856    7.8179    3.6644 
 C                     6.5624    4.3372    6.043 
 H                     7.3502    3.9477    6.3473 
 C                     5.4379    3.6093    6.1199 
 H                     5.4348    2.7442    6.4611 
 C                     4.2647    4.2289    5.6551 
 H                     3.464     3.7565    5.681 
 C                     4.2664    5.4991    5.1687 
 H                     3.488     5.9214    4.8847 
 C                     5.4965    6.1204    5.1239 
 C                     5.636     7.4491    4.5423 
 C                     5.1893    9.2966    3.3865 
 C                     4.6711    10.3183   2.598 
 H                     3.8061    10.2805   2.2584 
 C                     5.4938    11.3809   2.3457 
 H                     5.1899    12.0729   1.8038 
 C                     6.7817    11.4498   2.8847 
 H                     7.3146    12.1878   2.6944 
 C                     7.2777    10.4556   3.687 
 H                     8.1307    10.5205   4.0517 
 C                     6.494     9.3703    3.9384 
 N                     5.8052    8.1241    7.9651 
 N                     6.1992    10.7445   7.0646 
 N                     3.5767    8.3363    7.8305 
 H                     2.8062    8.672     7.6486 
 C                     5.209     7.0016    8.4935 
 C                     5.773     5.8516    9.0219 
 H                     6.6943    5.7248    9.0287 
 C                     4.9122    4.8987    9.5392 
 H                     5.2529    4.126     9.9286 
 C                     3.493     5.1048    9.474 
 H                     2.9293    4.4502    9.8183 
 C                     2.9528    6.2       8.9381 
 H                     2.0306    6.3187    8.9191 
 C                     3.7966    7.1454    8.4163 
 C                     4.8054    8.9333    7.5688 
 C                     4.9819    10.245    6.9706 
 C                     3.9216    10.9276   6.3573 
 H                     3.0634    10.5695   6.3466 
 C                     4.1859    12.1246   5.781 
 H                     3.5109    12.5707   5.3225 
 C                     5.4358    12.6905   5.8631 
 H                     5.6243    13.5264   5.5017 
 C                     6.4021    11.9342   6.521 
 H                     7.2578    12.2933   6.5835 
 N                     7.9765    6.9036    11.7487 
 N                     6.1811    8.9034    11.2108 
 N                     6.4082    5.523     12.6036 
 H                     5.6411    5.2252    12.8534 
 C                     8.5877    5.7279    12.1781 
 C                     9.934     5.3479    12.1376 
 H                     10.5843   5.8991    11.7658 
 C                     10.2483   4.1307    12.6693 
 H                     11.1374   3.8581    12.6764 
 C                     9.2953    3.2985    13.1923 
 H                     9.5643    2.4735    13.5267 
 C                     7.9102    3.6342    13.2496 
 H                     7.2704    3.0662    13.6142 
 C                     7.5954    4.8701    12.7204 
 C                     6.6484    6.7406    12.0171 
 C                     5.6831    7.7516    11.7256 
 C                     4.3354    7.5919    11.9617 
 H                     4.0088    6.8075    12.3399 
 C                     3.4574    8.6493    11.6157 
 H                     2.5391    8.5714    11.7405 
 C                     4.005     9.7881    11.0922 
 H                     3.4546    10.499    10.8543 
 C                     5.3294    9.8845    10.9205 
 H                     5.6726    10.6791   10.5804 
 
 NAtoms=    293 NQM=      293 NQMF=       0 NMMI=      0 NMMIF=      0
                NMic=       0 NMicF=      0.
                    Isotopes and Nuclear Properties:
 (Nuclear quadrupole moments (NQMom) in fm**2, nuclear magnetic moments (NMagM)
  in nuclear magnetons)

  Atom         1           2           3           4           5           6           7           8           9          10
 IAtWgt=         107         107         107         107         107         107         107         107         107          14
 AtmWgt= 106.9050900 106.9050900 106.9050900 106.9050900 106.9050900 106.9050900 106.9050900 106.9050900 106.9050900  14.0030740
 NucSpn=           1           1           1           1           1           1           1           1           1           2
 AtZEff=   0.0000000   0.0000000   0.0000000   0.0000000   0.0000000   0.0000000   0.0000000   0.0000000   0.0000000   0.0000000
 NQMom=    0.0000000   0.0000000   0.0000000   0.0000000   0.0000000   0.0000000   0.0000000   0.0000000   0.0000000   2.0440000
 NMagM=   -0.1135700  -0.1135700  -0.1135700  -0.1135700  -0.1135700  -0.1135700  -0.1135700  -0.1135700  -0.1135700   0.4037610
 AtZNuc=  47.0000000  47.0000000  47.0000000  47.0000000  47.0000000  47.0000000  47.0000000  47.0000000  47.0000000   7.0000000

  Atom        11          12          13          14          15          16          17          18          19          20
 IAtWgt=           1          14           1           1          12          12          12          12           1          12
 AtmWgt=   1.0078250  14.0030740   1.0078250   1.0078250  12.0000000  12.0000000  12.0000000  12.0000000   1.0078250  12.0000000
 NucSpn=           1           2           1           1           0           0           0           0           1           0
 AtZEff=   0.0000000   0.0000000   0.0000000   0.0000000   0.0000000   0.0000000   0.0000000   0.0000000   0.0000000   0.0000000
 NQMom=    0.0000000   2.0440000   0.0000000   0.0000000   0.0000000   0.0000000   0.0000000   0.0000000   0.0000000   0.0000000
 NMagM=    2.7928460   0.4037610   2.7928460   2.7928460   0.0000000   0.0000000   0.0000000   0.0000000   2.7928460   0.0000000
 AtZNuc=   1.0000000   7.0000000   1.0000000   1.0000000   6.0000000   6.0000000   6.0000000   6.0000000   1.0000000   6.0000000

  Atom        21          22          23          24          25          26          27          28          29          30
 IAtWgt=          12           1           1          12           1           1          12           1           1          12
 AtmWgt=  12.0000000   1.0078250   1.0078250  12.0000000   1.0078250   1.0078250  12.0000000   1.0078250   1.0078250  12.0000000
 NucSpn=           0           1           1           0           1           1           0           1           1           0
 AtZEff=   0.0000000   0.0000000   0.0000000   0.0000000   0.0000000   0.0000000   0.0000000   0.0000000   0.0000000   0.0000000
 NQMom=    0.0000000   0.0000000   0.0000000   0.0000000   0.0000000   0.0000000   0.0000000   0.0000000   0.0000000   0.0000000
 NMagM=    0.0000000   2.7928460   2.7928460   0.0000000   2.7928460   2.7928460   0.0000000   2.7928460   2.7928460   0.0000000
 AtZNuc=   6.0000000   1.0000000   1.0000000   6.0000000   1.0000000   1.0000000   6.0000000   1.0000000   1.0000000   6.0000000

  Atom        31          32          33          34          35          36          37          38          39          40
 IAtWgt=           1           1          12          12          12          12          12          12           1           1
 AtmWgt=   1.0078250   1.0078250  12.0000000  12.0000000  12.0000000  12.0000000  12.0000000  12.0000000   1.0078250   1.0078250
 NucSpn=           1           1           0           0           0           0           0           0           1           1
 AtZEff=   0.0000000   0.0000000   0.0000000   0.0000000   0.0000000   0.0000000   0.0000000   0.0000000   0.0000000   0.0000000
 NQMom=    0.0000000   0.0000000   0.0000000   0.0000000   0.0000000   0.0000000   0.0000000   0.0000000   0.0000000   0.0000000
 NMagM=    2.7928460   2.7928460   0.0000000   0.0000000   0.0000000   0.0000000   0.0000000   0.0000000   2.7928460   2.7928460
 AtZNuc=   1.0000000   1.0000000   6.0000000   6.0000000   6.0000000   6.0000000   6.0000000   6.0000000   1.0000000   1.0000000

  Atom        41          42          43          44          45          46          47          48          49          50
 IAtWgt=          12           1           1          12           1           1          12           1           1          12
 AtmWgt=  12.0000000   1.0078250   1.0078250  12.0000000   1.0078250   1.0078250  12.0000000   1.0078250   1.0078250  12.0000000
 NucSpn=           0           1           1           0           1           1           0           1           1           0
 AtZEff=   0.0000000   0.0000000   0.0000000   0.0000000   0.0000000   0.0000000   0.0000000   0.0000000   0.0000000   0.0000000
 NQMom=    0.0000000   0.0000000   0.0000000   0.0000000   0.0000000   0.0000000   0.0000000   0.0000000   0.0000000   0.0000000
 NMagM=    0.0000000   2.7928460   2.7928460   0.0000000   2.7928460   2.7928460   0.0000000   2.7928460   2.7928460   0.0000000
 AtZNuc=   6.0000000   1.0000000   1.0000000   6.0000000   1.0000000   1.0000000   6.0000000   1.0000000   1.0000000   6.0000000

  Atom        51          52          53          54          55          56          57          58          59          60
 IAtWgt=          12           1          12           1          12          14           1          14           1           1
 AtmWgt=  12.0000000   1.0078250  12.0000000   1.0078250  12.0000000  14.0030740   1.0078250  14.0030740   1.0078250   1.0078250
 NucSpn=           0           1           0           1           0           2           1           2           1           1
 AtZEff=   0.0000000   0.0000000   0.0000000   0.0000000   0.0000000   0.0000000   0.0000000   0.0000000   0.0000000   0.0000000
 NQMom=    0.0000000   0.0000000   0.0000000   0.0000000   0.0000000   2.0440000   0.0000000   2.0440000   0.0000000   0.0000000
 NMagM=    0.0000000   2.7928460   0.0000000   2.7928460   0.0000000   0.4037610   2.7928460   0.4037610   2.7928460   2.7928460
 AtZNuc=   6.0000000   1.0000000   6.0000000   1.0000000   6.0000000   7.0000000   1.0000000   7.0000000   1.0000000   1.0000000

  Atom        61          62          63          64          65          66          67          68          69          70
 IAtWgt=          12          12          12          12           1          12          12           1           1          12
 AtmWgt=  12.0000000  12.0000000  12.0000000  12.0000000   1.0078250  12.0000000  12.0000000   1.0078250   1.0078250  12.0000000
 NucSpn=           0           0           0           0           1           0           0           1           1           0
 AtZEff=   0.0000000   0.0000000   0.0000000   0.0000000   0.0000000   0.0000000   0.0000000   0.0000000   0.0000000   0.0000000
 NQMom=    0.0000000   0.0000000   0.0000000   0.0000000   0.0000000   0.0000000   0.0000000   0.0000000   0.0000000   0.0000000
 NMagM=    0.0000000   0.0000000   0.0000000   0.0000000   2.7928460   0.0000000   0.0000000   2.7928460   2.7928460   0.0000000
 AtZNuc=   6.0000000   6.0000000   6.0000000   6.0000000   1.0000000   6.0000000   6.0000000   1.0000000   1.0000000   6.0000000

  Atom        71          72          73          74          75          76          77          78          79          80
 IAtWgt=           1           1          12           1           1          12           1           1          12          12
 AtmWgt=   1.0078250   1.0078250  12.0000000   1.0078250   1.0078250  12.0000000   1.0078250   1.0078250  12.0000000  12.0000000
 NucSpn=           1           1           0           1           1           0           1           1           0           0
 AtZEff=   0.0000000   0.0000000   0.0000000   0.0000000   0.0000000   0.0000000   0.0000000   0.0000000   0.0000000   0.0000000
 NQMom=    0.0000000   0.0000000   0.0000000   0.0000000   0.0000000   0.0000000   0.0000000   0.0000000   0.0000000   0.0000000
 NMagM=    2.7928460   2.7928460   0.0000000   2.7928460   2.7928460   0.0000000   2.7928460   2.7928460   0.0000000   0.0000000
 AtZNuc=   1.0000000   1.0000000   6.0000000   1.0000000   1.0000000   6.0000000   1.0000000   1.0000000   6.0000000   6.0000000

  Atom        81          82          83          84          85          86          87          88          89          90
 IAtWgt=          12          12          12          12           1           1          12           1           1          12
 AtmWgt=  12.0000000  12.0000000  12.0000000  12.0000000   1.0078250   1.0078250  12.0000000   1.0078250   1.0078250  12.0000000
 NucSpn=           0           0           0           0           1           1           0           1           1           0
 AtZEff=   0.0000000   0.0000000   0.0000000   0.0000000   0.0000000   0.0000000   0.0000000   0.0000000   0.0000000   0.0000000
 NQMom=    0.0000000   0.0000000   0.0000000   0.0000000   0.0000000   0.0000000   0.0000000   0.0000000   0.0000000   0.0000000
 NMagM=    0.0000000   0.0000000   0.0000000   0.0000000   2.7928460   2.7928460   0.0000000   2.7928460   2.7928460   0.0000000
 AtZNuc=   6.0000000   6.0000000   6.0000000   6.0000000   1.0000000   1.0000000   6.0000000   1.0000000   1.0000000   6.0000000

  Atom        91          92          93          94          95          96          97          98          99         100
 IAtWgt=           1           1          12           1           1          12          12           1          12           1
 AtmWgt=   1.0078250   1.0078250  12.0000000   1.0078250   1.0078250  12.0000000  12.0000000   1.0078250  12.0000000   1.0078250
 NucSpn=           1           1           0           1           1           0           0           1           0           1
 AtZEff=   0.0000000   0.0000000   0.0000000   0.0000000   0.0000000   0.0000000   0.0000000   0.0000000   0.0000000   0.0000000
 NQMom=    0.0000000   0.0000000   0.0000000   0.0000000   0.0000000   0.0000000   0.0000000   0.0000000   0.0000000   0.0000000
 NMagM=    2.7928460   2.7928460   0.0000000   2.7928460   2.7928460   0.0000000   0.0000000   2.7928460   0.0000000   2.7928460
 AtZNuc=   1.0000000   1.0000000   6.0000000   1.0000000   1.0000000   6.0000000   6.0000000   1.0000000   6.0000000   1.0000000

  Atom       101         102         103         104         105         106         107         108         109         110
 IAtWgt=          12          14          14           1          14          12          12           1          12           1
 AtmWgt=  12.0000000  14.0030740  14.0030740   1.0078250  14.0030740  12.0000000  12.0000000   1.0078250  12.0000000   1.0078250
 NucSpn=           0           2           2           1           2           0           0           1           0           1
 AtZEff=   0.0000000   0.0000000   0.0000000   0.0000000   0.0000000   0.0000000   0.0000000   0.0000000   0.0000000   0.0000000
 NQMom=    0.0000000   2.0440000   2.0440000   0.0000000   2.0440000   0.0000000   0.0000000   0.0000000   0.0000000   0.0000000
 NMagM=    0.0000000   0.4037610   0.4037610   2.7928460   0.4037610   0.0000000   0.0000000   2.7928460   0.0000000   2.7928460
 AtZNuc=   6.0000000   7.0000000   7.0000000   1.0000000   7.0000000   6.0000000   6.0000000   1.0000000   6.0000000   1.0000000

  Atom       111         112         113         114         115         116         117         118         119         120
 IAtWgt=          12           1          12           1          12          12          12          12           1          12
 AtmWgt=  12.0000000   1.0078250  12.0000000   1.0078250  12.0000000  12.0000000  12.0000000  12.0000000   1.0078250  12.0000000
 NucSpn=           0           1           0           1           0           0           0           0           1           0
 AtZEff=   0.0000000   0.0000000   0.0000000   0.0000000   0.0000000   0.0000000   0.0000000   0.0000000   0.0000000   0.0000000
 NQMom=    0.0000000   0.0000000   0.0000000   0.0000000   0.0000000   0.0000000   0.0000000   0.0000000   0.0000000   0.0000000
 NMagM=    0.0000000   2.7928460   0.0000000   2.7928460   0.0000000   0.0000000   0.0000000   0.0000000   2.7928460   0.0000000
 AtZNuc=   6.0000000   1.0000000   6.0000000   1.0000000   6.0000000   6.0000000   6.0000000   6.0000000   1.0000000   6.0000000

  Atom       121         122         123         124         125         126         127         128         129         130
 IAtWgt=           1          12           1          12           1          14          14           1          14          12
 AtmWgt=   1.0078250  12.0000000   1.0078250  12.0000000   1.0078250  14.0030740  14.0030740   1.0078250  14.0030740  12.0000000
 NucSpn=           1           0           1           0           1           2           2           1           2           0
 AtZEff=   0.0000000   0.0000000   0.0000000   0.0000000   0.0000000   0.0000000   0.0000000   0.0000000   0.0000000   0.0000000
 NQMom=    0.0000000   0.0000000   0.0000000   0.0000000   0.0000000   2.0440000   2.0440000   0.0000000   2.0440000   0.0000000
 NMagM=    2.7928460   0.0000000   2.7928460   0.0000000   2.7928460   0.4037610   0.4037610   2.7928460   0.4037610   0.0000000
 AtZNuc=   1.0000000   6.0000000   1.0000000   6.0000000   1.0000000   7.0000000   7.0000000   1.0000000   7.0000000   6.0000000

  Atom       131         132         133         134         135         136         137         138         139         140
 IAtWgt=          12           1          12           1          12           1          12           1          12          12
 AtmWgt=  12.0000000   1.0078250  12.0000000   1.0078250  12.0000000   1.0078250  12.0000000   1.0078250  12.0000000  12.0000000
 NucSpn=           0           1           0           1           0           1           0           1           0           0
 AtZEff=   0.0000000   0.0000000   0.0000000   0.0000000   0.0000000   0.0000000   0.0000000   0.0000000   0.0000000   0.0000000
 NQMom=    0.0000000   0.0000000   0.0000000   0.0000000   0.0000000   0.0000000   0.0000000   0.0000000   0.0000000   0.0000000
 NMagM=    0.0000000   2.7928460   0.0000000   2.7928460   0.0000000   2.7928460   0.0000000   2.7928460   0.0000000   0.0000000
 AtZNuc=   6.0000000   1.0000000   6.0000000   1.0000000   6.0000000   1.0000000   6.0000000   1.0000000   6.0000000   6.0000000

  Atom       141         142         143         144         145         146         147         148         149         150
 IAtWgt=          12          12           1          12           1          12           1          12           1          14
 AtmWgt=  12.0000000  12.0000000   1.0078250  12.0000000   1.0078250  12.0000000   1.0078250  12.0000000   1.0078250  14.0030740
 NucSpn=           0           0           1           0           1           0           1           0           1           2
 AtZEff=   0.0000000   0.0000000   0.0000000   0.0000000   0.0000000   0.0000000   0.0000000   0.0000000   0.0000000   0.0000000
 NQMom=    0.0000000   0.0000000   0.0000000   0.0000000   0.0000000   0.0000000   0.0000000   0.0000000   0.0000000   2.0440000
 NMagM=    0.0000000   0.0000000   2.7928460   0.0000000   2.7928460   0.0000000   2.7928460   0.0000000   2.7928460   0.4037610
 AtZNuc=   6.0000000   6.0000000   1.0000000   6.0000000   1.0000000   6.0000000   1.0000000   6.0000000   1.0000000   7.0000000

  Atom       151         152         153         154         155         156         157         158         159         160
 IAtWgt=          14          14           1          12           1          12           1          12           1          12
 AtmWgt=  14.0030740  14.0030740   1.0078250  12.0000000   1.0078250  12.0000000   1.0078250  12.0000000   1.0078250  12.0000000
 NucSpn=           2           2           1           0           1           0           1           0           1           0
 AtZEff=   0.0000000   0.0000000   0.0000000   0.0000000   0.0000000   0.0000000   0.0000000   0.0000000   0.0000000   0.0000000
 NQMom=    2.0440000   2.0440000   0.0000000   0.0000000   0.0000000   0.0000000   0.0000000   0.0000000   0.0000000   0.0000000
 NMagM=    0.4037610   0.4037610   2.7928460   0.0000000   2.7928460   0.0000000   2.7928460   0.0000000   2.7928460   0.0000000
 AtZNuc=   7.0000000   7.0000000   1.0000000   6.0000000   1.0000000   6.0000000   1.0000000   6.0000000   1.0000000   6.0000000

  Atom       161         162         163         164         165         166         167         168         169         170
 IAtWgt=           1          12          12          12          12           1          12           1          12           1
 AtmWgt=   1.0078250  12.0000000  12.0000000  12.0000000  12.0000000   1.0078250  12.0000000   1.0078250  12.0000000   1.0078250
 NucSpn=           1           0           0           0           0           1           0           1           0           1
 AtZEff=   0.0000000   0.0000000   0.0000000   0.0000000   0.0000000   0.0000000   0.0000000   0.0000000   0.0000000   0.0000000
 NQMom=    0.0000000   0.0000000   0.0000000   0.0000000   0.0000000   0.0000000   0.0000000   0.0000000   0.0000000   0.0000000
 NMagM=    2.7928460   0.0000000   0.0000000   0.0000000   0.0000000   2.7928460   0.0000000   2.7928460   0.0000000   2.7928460
 AtZNuc=   1.0000000   6.0000000   6.0000000   6.0000000   6.0000000   1.0000000   6.0000000   1.0000000   6.0000000   1.0000000

  Atom       171         172         173         174         175         176         177         178         179         180
 IAtWgt=          12           1          12          14          14          14           1          12           1          12
 AtmWgt=  12.0000000   1.0078250  12.0000000  14.0030740  14.0030740  14.0030740   1.0078250  12.0000000   1.0078250  12.0000000
 NucSpn=           0           1           0           2           2           2           1           0           1           0
 AtZEff=   0.0000000   0.0000000   0.0000000   0.0000000   0.0000000   0.0000000   0.0000000   0.0000000   0.0000000   0.0000000
 NQMom=    0.0000000   0.0000000   0.0000000   2.0440000   2.0440000   2.0440000   0.0000000   0.0000000   0.0000000   0.0000000
 NMagM=    0.0000000   2.7928460   0.0000000   0.4037610   0.4037610   0.4037610   2.7928460   0.0000000   2.7928460   0.0000000
 AtZNuc=   6.0000000   1.0000000   6.0000000   7.0000000   7.0000000   7.0000000   1.0000000   6.0000000   1.0000000   6.0000000

  Atom       181         182         183         184         185         186         187         188         189         190
 IAtWgt=           1          12           1          12           1          12          12          12          12           1
 AtmWgt=   1.0078250  12.0000000   1.0078250  12.0000000   1.0078250  12.0000000  12.0000000  12.0000000  12.0000000   1.0078250
 NucSpn=           1           0           1           0           1           0           0           0           0           1
 AtZEff=   0.0000000   0.0000000   0.0000000   0.0000000   0.0000000   0.0000000   0.0000000   0.0000000   0.0000000   0.0000000
 NQMom=    0.0000000   0.0000000   0.0000000   0.0000000   0.0000000   0.0000000   0.0000000   0.0000000   0.0000000   0.0000000
 NMagM=    2.7928460   0.0000000   2.7928460   0.0000000   2.7928460   0.0000000   0.0000000   0.0000000   0.0000000   2.7928460
 AtZNuc=   1.0000000   6.0000000   1.0000000   6.0000000   1.0000000   6.0000000   6.0000000   6.0000000   6.0000000   1.0000000

  Atom       191         192         193         194         195         196         197         198         199         200
 IAtWgt=          12           1          12           1          12           1          12          14          14          14
 AtmWgt=  12.0000000   1.0078250  12.0000000   1.0078250  12.0000000   1.0078250  12.0000000  14.0030740  14.0030740  14.0030740
 NucSpn=           0           1           0           1           0           1           0           2           2           2
 AtZEff=   0.0000000   0.0000000   0.0000000   0.0000000   0.0000000   0.0000000   0.0000000   0.0000000   0.0000000   0.0000000
 NQMom=    0.0000000   0.0000000   0.0000000   0.0000000   0.0000000   0.0000000   0.0000000   2.0440000   2.0440000   2.0440000
 NMagM=    0.0000000   2.7928460   0.0000000   2.7928460   0.0000000   2.7928460   0.0000000   0.4037610   0.4037610   0.4037610
 AtZNuc=   6.0000000   1.0000000   6.0000000   1.0000000   6.0000000   1.0000000   6.0000000   7.0000000   7.0000000   7.0000000

  Atom       201         202         203         204         205         206         207         208         209         210
 IAtWgt=           1          12           1          12           1          12           1          12           1          12
 AtmWgt=   1.0078250  12.0000000   1.0078250  12.0000000   1.0078250  12.0000000   1.0078250  12.0000000   1.0078250  12.0000000
 NucSpn=           1           0           1           0           1           0           1           0           1           0
 AtZEff=   0.0000000   0.0000000   0.0000000   0.0000000   0.0000000   0.0000000   0.0000000   0.0000000   0.0000000   0.0000000
 NQMom=    0.0000000   0.0000000   0.0000000   0.0000000   0.0000000   0.0000000   0.0000000   0.0000000   0.0000000   0.0000000
 NMagM=    2.7928460   0.0000000   2.7928460   0.0000000   2.7928460   0.0000000   2.7928460   0.0000000   2.7928460   0.0000000
 AtZNuc=   1.0000000   6.0000000   1.0000000   6.0000000   1.0000000   6.0000000   1.0000000   6.0000000   1.0000000   6.0000000

  Atom       211         212         213         214         215         216         217         218         219         220
 IAtWgt=          12          12          12           1          12           1          12           1          12           1
 AtmWgt=  12.0000000  12.0000000  12.0000000   1.0078250  12.0000000   1.0078250  12.0000000   1.0078250  12.0000000   1.0078250
 NucSpn=           0           0           0           1           0           1           0           1           0           1
 AtZEff=   0.0000000   0.0000000   0.0000000   0.0000000   0.0000000   0.0000000   0.0000000   0.0000000   0.0000000   0.0000000
 NQMom=    0.0000000   0.0000000   0.0000000   0.0000000   0.0000000   0.0000000   0.0000000   0.0000000   0.0000000   0.0000000
 NMagM=    0.0000000   0.0000000   0.0000000   2.7928460   0.0000000   2.7928460   0.0000000   2.7928460   0.0000000   2.7928460
 AtZNuc=   6.0000000   6.0000000   6.0000000   1.0000000   6.0000000   1.0000000   6.0000000   1.0000000   6.0000000   1.0000000

  Atom       221         222         223         224         225         226         227         228         229         230
 IAtWgt=          12          14          14          14           1          12           1          12           1          12
 AtmWgt=  12.0000000  14.0030740  14.0030740  14.0030740   1.0078250  12.0000000   1.0078250  12.0000000   1.0078250  12.0000000
 NucSpn=           0           2           2           2           1           0           1           0           1           0
 AtZEff=   0.0000000   0.0000000   0.0000000   0.0000000   0.0000000   0.0000000   0.0000000   0.0000000   0.0000000   0.0000000
 NQMom=    0.0000000   2.0440000   2.0440000   2.0440000   0.0000000   0.0000000   0.0000000   0.0000000   0.0000000   0.0000000
 NMagM=    0.0000000   0.4037610   0.4037610   0.4037610   2.7928460   0.0000000   2.7928460   0.0000000   2.7928460   0.0000000
 AtZNuc=   6.0000000   7.0000000   7.0000000   7.0000000   1.0000000   6.0000000   1.0000000   6.0000000   1.0000000   6.0000000

  Atom       231         232         233         234         235         236         237         238         239         240
 IAtWgt=           1          12           1          12          12          12          12           1          12           1
 AtmWgt=   1.0078250  12.0000000   1.0078250  12.0000000  12.0000000  12.0000000  12.0000000   1.0078250  12.0000000   1.0078250
 NucSpn=           1           0           1           0           0           0           0           1           0           1
 AtZEff=   0.0000000   0.0000000   0.0000000   0.0000000   0.0000000   0.0000000   0.0000000   0.0000000   0.0000000   0.0000000
 NQMom=    0.0000000   0.0000000   0.0000000   0.0000000   0.0000000   0.0000000   0.0000000   0.0000000   0.0000000   0.0000000
 NMagM=    2.7928460   0.0000000   2.7928460   0.0000000   0.0000000   0.0000000   0.0000000   2.7928460   0.0000000   2.7928460
 AtZNuc=   1.0000000   6.0000000   1.0000000   6.0000000   6.0000000   6.0000000   6.0000000   1.0000000   6.0000000   1.0000000

  Atom       241         242         243         244         245         246         247         248         249         250
 IAtWgt=          12           1          12           1          12          14          14          14           1          12
 AtmWgt=  12.0000000   1.0078250  12.0000000   1.0078250  12.0000000  14.0030740  14.0030740  14.0030740   1.0078250  12.0000000
 NucSpn=           0           1           0           1           0           2           2           2           1           0
 AtZEff=   0.0000000   0.0000000   0.0000000   0.0000000   0.0000000   0.0000000   0.0000000   0.0000000   0.0000000   0.0000000
 NQMom=    0.0000000   0.0000000   0.0000000   0.0000000   0.0000000   2.0440000   2.0440000   2.0440000   0.0000000   0.0000000
 NMagM=    0.0000000   2.7928460   0.0000000   2.7928460   0.0000000   0.4037610   0.4037610   0.4037610   2.7928460   0.0000000
 AtZNuc=   6.0000000   1.0000000   6.0000000   1.0000000   6.0000000   7.0000000   7.0000000   7.0000000   1.0000000   6.0000000

  Atom       251         252         253         254         255         256         257         258         259         260
 IAtWgt=          12           1          12           1          12           1          12           1          12          12
 AtmWgt=  12.0000000   1.0078250  12.0000000   1.0078250  12.0000000   1.0078250  12.0000000   1.0078250  12.0000000  12.0000000
 NucSpn=           0           1           0           1           0           1           0           1           0           0
 AtZEff=   0.0000000   0.0000000   0.0000000   0.0000000   0.0000000   0.0000000   0.0000000   0.0000000   0.0000000   0.0000000
 NQMom=    0.0000000   0.0000000   0.0000000   0.0000000   0.0000000   0.0000000   0.0000000   0.0000000   0.0000000   0.0000000
 NMagM=    0.0000000   2.7928460   0.0000000   2.7928460   0.0000000   2.7928460   0.0000000   2.7928460   0.0000000   0.0000000
 AtZNuc=   6.0000000   1.0000000   6.0000000   1.0000000   6.0000000   1.0000000   6.0000000   1.0000000   6.0000000   6.0000000

  Atom       261         262         263         264         265         266         267         268         269         270
 IAtWgt=          12          12           1          12           1          12           1          12           1          14
 AtmWgt=  12.0000000  12.0000000   1.0078250  12.0000000   1.0078250  12.0000000   1.0078250  12.0000000   1.0078250  14.0030740
 NucSpn=           0           0           1           0           1           0           1           0           1           2
 AtZEff=   0.0000000   0.0000000   0.0000000   0.0000000   0.0000000   0.0000000   0.0000000   0.0000000   0.0000000   0.0000000
 NQMom=    0.0000000   0.0000000   0.0000000   0.0000000   0.0000000   0.0000000   0.0000000   0.0000000   0.0000000   2.0440000
 NMagM=    0.0000000   0.0000000   2.7928460   0.0000000   2.7928460   0.0000000   2.7928460   0.0000000   2.7928460   0.4037610
 AtZNuc=   6.0000000   6.0000000   1.0000000   6.0000000   1.0000000   6.0000000   1.0000000   6.0000000   1.0000000   7.0000000

  Atom       271         272         273         274         275         276         277         278         279         280
 IAtWgt=          14          14           1          12          12           1          12           1          12           1
 AtmWgt=  14.0030740  14.0030740   1.0078250  12.0000000  12.0000000   1.0078250  12.0000000   1.0078250  12.0000000   1.0078250
 NucSpn=           2           2           1           0           0           1           0           1           0           1
 AtZEff=   0.0000000   0.0000000   0.0000000   0.0000000   0.0000000   0.0000000   0.0000000   0.0000000   0.0000000   0.0000000
 NQMom=    2.0440000   2.0440000   0.0000000   0.0000000   0.0000000   0.0000000   0.0000000   0.0000000   0.0000000   0.0000000
 NMagM=    0.4037610   0.4037610   2.7928460   0.0000000   0.0000000   2.7928460   0.0000000   2.7928460   0.0000000   2.7928460
 AtZNuc=   7.0000000   7.0000000   1.0000000   6.0000000   6.0000000   1.0000000   6.0000000   1.0000000   6.0000000   1.0000000

  Atom       281         282         283         284         285         286         287         288         289         290
 IAtWgt=          12           1          12          12          12          12           1          12           1          12
 AtmWgt=  12.0000000   1.0078250  12.0000000  12.0000000  12.0000000  12.0000000   1.0078250  12.0000000   1.0078250  12.0000000
 NucSpn=           0           1           0           0           0           0           1           0           1           0
 AtZEff=   0.0000000   0.0000000   0.0000000   0.0000000   0.0000000   0.0000000   0.0000000   0.0000000   0.0000000   0.0000000
 NQMom=    0.0000000   0.0000000   0.0000000   0.0000000   0.0000000   0.0000000   0.0000000   0.0000000   0.0000000   0.0000000
 NMagM=    0.0000000   2.7928460   0.0000000   0.0000000   0.0000000   0.0000000   2.7928460   0.0000000   2.7928460   0.0000000
 AtZNuc=   6.0000000   1.0000000   6.0000000   6.0000000   6.0000000   6.0000000   1.0000000   6.0000000   1.0000000   6.0000000

  Atom       291         292         293
 IAtWgt=           1          12           1
 AtmWgt=   1.0078250  12.0000000   1.0078250
 NucSpn=           1           0           1
 AtZEff=   0.0000000   0.0000000   0.0000000
 NQMom=    0.0000000   0.0000000   0.0000000
 NMagM=    2.7928460   0.0000000   2.7928460
 AtZNuc=   1.0000000   6.0000000   1.0000000
 Leave Link  101 at Thu Jun  6 11:27:20 2019, MaxMem= 12079595520 cpu:         7.7
 (Enter /home/scicons/Gaussian09.D01/l202.exe)
 Stoichiometry    C140H116Ag9N28(5+)
 Framework group  C1[X(C140H116Ag9N28)]
 Deg. of freedom   873
 Full point group                 C1      NOp   1
 Largest Abelian subgroup         C1      NOp   1
 Largest concise Abelian subgroup C1      NOp   1
                         Standard orientation:                         
 ---------------------------------------------------------------------
 Center     Atomic      Atomic             Coordinates (Angstroms)
 Number     Number       Type             X           Y           Z
 ---------------------------------------------------------------------
      1         47           0       -0.130635   -0.088486   -0.020672
      2         47           0        2.183523    1.390574    0.283793
      3         47           0        4.295674    0.102932   -1.316536
      4         47           0        2.658584   -1.918927   -1.944821
      5         47           0        0.612417   -2.723516   -0.090272
      6         47           0       -2.434927   -1.581156    0.119776
      7         47           0       -3.380232    0.396283    2.079695
      8         47           0       -3.201529    2.978274    1.306265
      9         47           0       -0.883767    2.494593   -0.365756
     10          7           0        3.865757   -1.605149    0.965872
     11          1           0        4.683095   -1.822613    0.810068
     12          7           0        5.682962   -0.364515    4.646987
     13          1           0        4.848424   -0.206492    4.349359
     14          1           0        6.210709    0.293447    4.332906
     15          6           0        2.975785   -1.137618    0.016096
     16          6           0        1.744286   -0.820462    0.664724
     17          6           0        1.946063   -1.183192    2.067052
     18          6           0        1.138166   -1.175028    3.190784
     19          1           0        0.270813   -0.845807    3.125236
     20          6           0        1.598406   -1.651581    4.423365
     21          6           0        0.702431   -1.733833    5.622853
     22          1           0        0.243513   -0.883287    5.706317
     23          1           0        0.026630   -2.405235    5.439940
     24          6           0        1.290234   -2.041860    6.904706
     25          1           0        0.598995   -2.283702    7.540862
     26          1           0        1.768202   -1.270814    7.248097
     27          6           0        2.304859   -3.275164    6.689994
     28          1           0        2.641610   -3.602625    7.538700
     29          1           0        1.873971   -4.004268    6.217179
     30          6           0        3.430401   -2.659190    5.848944
     31          1           0        3.849422   -1.944302    6.353091
     32          1           0        4.103961   -3.335174    5.675104
     33          6           0        2.925533   -2.106799    4.525959
     34          6           0        3.781330   -2.107225    3.436829
     35          6           0        3.244997   -1.672647    2.213890
     36          6           0        5.233011   -2.526603    3.530043
     37          6           0        5.645714   -3.759409    3.094216
     38          6           0        4.637913   -4.784423    2.575664
     39          1           0        4.058800   -5.046831    3.308212
     40          1           0        4.083761   -4.359986    1.902090
     41          6           0        5.248997   -6.018606    1.983579
     42          1           0        4.593701   -6.733325    2.008388
     43          1           0        5.460270   -5.845865    1.052791
     44          6           0        6.449653   -6.465054    2.657681
     45          1           0        6.215595   -6.738462    3.558412
     46          1           0        6.792804   -7.245277    2.194654
     47          6           0        7.491817   -5.482863    2.733739
     48          1           0        7.904961   -5.397652    1.860256
     49          1           0        8.171219   -5.795623    3.351437
     50          6           0        7.015854   -4.117141    3.183204
     51          6           0        7.879760   -3.178614    3.666476
     52          1           0        8.788815   -3.374707    3.660595
     53          6           0        7.490223   -1.983391    4.151734
     54          1           0        8.115492   -1.405360    4.525725
     55          6           0        6.134433   -1.613049    4.090948
     56          7           0       -4.234968    1.266437   -0.795732
     57          1           0       -5.020845    1.530613   -0.567202
     58          7           0       -5.330561    3.675177   -4.102013
     59          1           0       -4.523950    3.350812   -3.869104
     60          1           0       -5.432431    4.468610   -3.689716
     61          6           0       -3.184983    1.102292    0.082335
     62          6           0       -2.045424    0.614069   -0.654152
     63          6           0       -2.522588    0.508248   -2.040171
     64          6           0       -1.922587    0.077722   -3.232826
     65          1           0       -1.039282   -0.213112   -3.236600
     66          6           0       -2.675794    0.091171   -4.428111
     67          6           0       -2.172303   -0.421246   -5.756881
     68          1           0       -1.961391    0.334456   -6.327212
     69          1           0       -1.353583   -0.921138   -5.612713
     70          6           0       -3.116132   -1.258523   -6.425330
     71          1           0       -3.127378   -2.122597   -5.984675
     72          1           0       -2.812195   -1.399114   -7.335764
     73          6           0       -4.493307   -0.737332   -6.467526
     74          1           0       -5.087546   -1.406370   -6.093112
     75          1           0       -4.745881   -0.608812   -7.395237
     76          6           0       -4.704160    0.544539   -5.737654
     77          1           0       -4.389435    1.278239   -6.288582
     78          1           0       -5.654119    0.671641   -5.588474
     79          6           0       -4.003766    0.581395   -4.440722
     80          6           0       -4.631045    1.001634   -3.257220
     81          6           0       -3.861753    0.950052   -2.100567
     82          6           0       -6.044840    1.488960   -3.234605
     83          6           0       -7.077764    0.599833   -2.806710
     84          6           0       -6.725572   -0.802974   -2.427894
     85          1           0       -6.018838   -0.782258   -1.763784
     86          1           0       -6.383716   -1.264271   -3.209620
     87          6           0       -7.941983   -1.607566   -1.852617
     88          1           0       -7.764854   -2.546616   -2.019080
     89          1           0       -7.931499   -1.487536   -0.890144
     90          6           0       -9.166484   -1.371879   -2.254579
     91          1           0       -9.778550   -1.705633   -1.580012
     92          1           0       -9.324170   -1.879202   -3.066162
     93          6           0       -9.510415    0.110347   -2.532885
     94          1           0      -10.132110    0.134026   -3.277051
     95          1           0       -9.980735    0.454517   -1.757428
     96          6           0       -8.409639    1.041766   -2.838929
     97          6           0       -8.656018    2.363325   -3.179588
     98          1           0       -9.527534    2.684642   -3.134329
     99          6           0       -7.678361    3.192817   -3.572084
    100          1           0       -7.887852    4.063732   -3.822248
    101          6           0       -6.351938    2.765924   -3.609886
    102          7           0        5.542093    1.062716   -2.873517
    103          7           0        6.959803    2.617552   -3.511855
    104          1           0        7.551494    3.239192   -3.457225
    105          7           0        5.937718    1.513265   -0.217534
    106          6           0        5.554080    1.081375   -4.247161
    107          6           0        4.880827    0.326735   -5.167441
    108          1           0        4.311854   -0.358012   -4.898348
    109          6           0        5.072920    0.615527   -6.545581
    110          1           0        4.630728    0.131631   -7.205261
    111          6           0        5.988352    1.698013   -6.888479
    112          1           0        6.100185    1.890630   -7.791481
    113          6           0        6.698620    2.456239   -5.992144
    114          1           0        7.288753    3.132444   -6.235761
    115          6           0        6.432009    2.094441   -4.678776
    116          6           0        6.377217    1.974755   -2.469801
    117          6           0        6.661006    2.234132   -1.089250
    118          6           0        7.657075    3.085799   -0.682051
    119          1           0        8.145536    3.571277   -1.307092
    120          6           0        7.931473    3.216291    0.695913
    121          1           0        8.594102    3.796772    0.994048
    122          6           0        7.227007    2.496043    1.557630
    123          1           0        7.396056    2.578131    2.468420
    124          6           0        6.223880    1.606123    1.114428
    125          1           0        5.759311    1.084465    1.728367
    126          7           0        3.141810    3.226134   -0.416311
    127          7           0        4.465112    4.960714   -0.019722
    128          1           0        4.918095    5.547558    0.416026
    129          7           0        3.043515    2.515438    2.209533
    130          6           0        3.513559    3.817251   -1.628622
    131          6           0        3.228007    3.431149   -2.932223
    132          1           0        2.683537    2.699167   -3.113049
    133          6           0        3.782456    4.174273   -3.939157
    134          1           0        3.612039    3.937173   -4.822191
    135          6           0        4.548851    5.213348   -3.693708
    136          1           0        4.886605    5.700278   -4.410476
    137          6           0        4.872745    5.610846   -2.403107
    138          1           0        5.428900    6.338598   -2.241580
    139          6           0        4.335569    4.881771   -1.385105
    140          6           0        3.749720    3.946448    0.511546
    141          6           0        3.691063    3.601464    1.952353
    142          6           0        4.338699    4.353623    2.921778
    143          1           0        4.758648    5.155344    2.707880
    144          6           0        4.337871    3.862468    4.236078
    145          1           0        4.817683    4.305141    4.898411
    146          6           0        3.640549    2.747632    4.538608
    147          1           0        3.602170    2.424075    5.409642
    148          6           0        2.973934    2.093192    3.486600
    149          1           0        2.465102    1.339281    3.680745
    150          7           0       -0.359552    3.742384   -2.363265
    151          7           0        0.077089    4.318801    0.330209
    152          7           0        1.116284    6.220958   -0.064432
    153          1           0        1.419637    6.897283   -0.500586
    154          6           0       -0.632680    3.457981   -3.613208
    155          1           0       -1.020991    2.631466   -3.788886
    156          6           0       -0.394854    4.269932   -4.667345
    157          1           0       -0.627198    4.038921   -5.537681
    158          6           0        0.245339    5.520565   -4.343205
    159          1           0        0.451363    6.122218   -5.021675
    160          6           0        0.554824    5.832526   -3.036316
    161          1           0        0.963950    6.636232   -2.809298
    162          6           0        0.222312    4.879210   -2.070484
    163          6           0        0.507448    5.130950   -0.617715
    164          6           0        1.166667    6.067486    1.284297
    165          6           0        1.629572    6.830367    2.271465
    166          1           0        2.012020    7.659666    2.095620
    167          6           0        1.529293    6.370592    3.525236
    168          1           0        1.949569    6.831930    4.214820
    169          6           0        0.843953    5.272748    3.802603
    170          1           0        0.708834    5.045280    4.694167
    171          6           0        0.315203    4.441335    2.812099
    172          1           0       -0.143511    3.658794    3.017438
    173          6           0        0.511693    4.844992    1.535068
    174          7           0       -3.114741    5.016260   -0.160443
    175          7           0       -3.125461    4.735031    2.601159
    176          7           0       -2.503447    6.833143    2.962170
    177          1           0       -2.291580    7.652724    2.810476
    178          6           0       -3.219531    5.230329   -1.490887
    179          1           0       -3.451304    4.494689   -2.010470
    180          6           0       -3.023118    6.405923   -2.157524
    181          1           0       -3.121220    6.463512   -3.080574
    182          6           0       -2.635985    7.618809   -1.320536
    183          1           0       -2.442533    8.449429   -1.691598
    184          6           0       -2.597638    7.373130    0.047457
    185          1           0       -2.411712    8.077935    0.625097
    186          6           0       -2.824719    6.125986    0.575246
    187          6           0       -2.796386    5.917748    2.007577
    188          6           0       -2.594966    6.256780    4.216948
    189          6           0       -2.385068    6.743258    5.443297
    190          1           0       -2.080457    7.613660    5.564380
    191          6           0       -2.632741    5.918120    6.534123
    192          1           0       -2.530513    6.218028    7.408474
    193          6           0       -3.044011    4.611978    6.245954
    194          1           0       -3.177673    4.059772    6.982167
    195          6           0       -3.286749    4.012134    4.967128
    196          1           0       -3.599775    3.147805    4.826314
    197          6           0       -2.978791    4.931000    3.972260
    198          7           0        2.662127   -4.266404   -2.522912
    199          7           0        1.990683   -2.076885   -4.020906
    200          7           0        1.592161   -3.258087   -5.848367
    201          1           0        1.507214   -3.940652   -6.364572
    202          6           0        2.918269   -5.336049   -1.766636
    203          1           0        3.243357   -5.183187   -0.908768
    204          6           0        2.740316   -6.657279   -2.152591
    205          1           0        2.919250   -7.367334   -1.579369
    206          6           0        2.280443   -6.852754   -3.442083
    207          1           0        2.142788   -7.718414   -3.752684
    208          6           0        2.024189   -5.789353   -4.270459
    209          1           0        1.726583   -5.921199   -5.141635
    210          6           0        2.222582   -4.513347   -3.768987
    211          6           0        1.940302   -3.298594   -4.544818
    212          6           0        1.394118   -1.940624   -6.218727
    213          6           0        1.073404   -1.315779   -7.390918
    214          1           0        0.936667   -1.801797   -8.171893
    215          6           0        0.961596    0.028247   -7.379014
    216          1           0        0.710935    0.472346   -8.156745
    217          6           0        1.220549    0.779897   -6.196913
    218          1           0        1.163610    1.707659   -6.226131
    219          6           0        1.551045    0.166624   -5.020150
    220          1           0        1.705930    0.657888   -4.245774
    221          6           0        1.645539   -1.210613   -5.027146
    222          7           0        0.603144   -4.625592    1.381231
    223          7           0       -0.417734   -4.364314   -1.173086
    224          7           0       -0.988326   -6.512880   -1.268866
    225          1           0       -1.139045   -7.321118   -1.016511
    226          6           0        1.067288   -4.742956    2.647291
    227          1           0        1.550509   -4.029680    2.997539
    228          6           0        0.880380   -5.814065    3.433449
    229          1           0        1.219466   -5.853995    4.298464
    230          6           0        0.142895   -6.872585    2.874886
    231          1           0       -0.002061   -7.638680    3.381877
    232          6           0       -0.364901   -6.809014    1.614689
    233          1           0       -0.875262   -7.496390    1.251446
    234          6           0       -0.074390   -5.659765    0.910419
    235          6           0       -0.490655   -5.515368   -0.478478
    236          6           0       -1.207965   -6.020992   -2.522611
    237          6           0       -1.661887   -6.600807   -3.702401
    238          1           0       -1.899935   -7.498926   -3.743595
    239          6           0       -1.741429   -5.787750   -4.798860
    240          1           0       -2.019429   -6.145284   -5.611116
    241          6           0       -1.414116   -4.430757   -4.725442
    242          1           0       -1.481018   -3.905603   -5.490020
    243          6           0       -0.997007   -3.855834   -3.553427
    244          1           0       -0.796652   -2.948560   -3.514195
    245          6           0       -0.882198   -4.642413   -2.447364
    246          7           0       -2.797634   -3.494978    1.193552
    247          7           0       -3.698042   -2.987772   -1.407340
    248          7           0       -4.030949   -5.362788    1.333464
    249          1           0       -4.542265   -6.013255    1.099152
    250          6           0       -2.720475   -3.995786    2.473359
    251          6           0       -2.012337   -3.539331    3.573355
    252          1           0       -1.449962   -2.801069    3.513176
    253          6           0       -2.174205   -4.224656    4.765295
    254          1           0       -1.738487   -3.932506    5.533131
    255          6           0       -3.015595   -5.386756    4.814724
    256          1           0       -3.105782   -5.840138    5.621640
    257          6           0       -3.672742   -5.840410    3.746630
    258          1           0       -4.223512   -6.587492    3.805144
    259          6           0       -3.512608   -5.173273    2.560316
    260          6           0       -3.600799   -4.329371    0.507861
    261          6           0       -3.977331   -4.166661   -0.885444
    262          6           0       -4.608475   -5.190696   -1.606087
    263          1           0       -4.833771   -5.995372   -1.197926
    264          6           0       -4.879896   -4.971702   -2.914963
    265          1           0       -5.249557   -5.654978   -3.426174
    266          6           0       -4.617762   -3.755694   -3.499638
    267          1           0       -4.828930   -3.578906   -4.387909
    268          6           0       -4.016299   -2.805144   -2.679117
    269          1           0       -3.822865   -1.976318   -3.054232
    270          7           0       -3.075308   -0.087137    4.164968
    271          7           0       -4.957795   -1.366566    2.638109
    272          7           0       -3.540632   -1.293982    6.015231
    273          1           0       -3.905667   -1.877752    6.530487
    274          6           0       -2.269040    0.352672    5.212212
    275          6           0       -1.297068    1.359263    5.236902
    276          1           0       -1.080898    1.845872    4.474388
    277          6           0       -0.681182    1.593726    6.432217
    278          1           0       -0.045381    2.270243    6.486453
    279          6           0       -0.970160    0.863754    7.553791
    280          1           0       -0.508102    1.056138    8.337563
    281          6           0       -1.944826   -0.177322    7.579634
    282          1           0       -2.140837   -0.662870    8.348220
    283          6           0       -2.574045   -0.406439    6.372079
    284          6           0       -3.831719   -1.095162    4.688593
    285          6           0       -4.802608   -1.799676    3.914040
    286          6           0       -5.552787   -2.839393    4.417789
    287          1           0       -5.456408   -3.110073    5.302339
    288          6           0       -6.474851   -3.487535    3.558484
    289          1           0       -6.984394   -4.206626    3.855456
    290          6           0       -6.590687   -3.020716    2.278076
    291          1           0       -7.186444   -3.425979    1.690069
    292          6           0       -5.850682   -1.983307    1.867000
    293          1           0       -5.966623   -1.677263    0.996518
 ---------------------------------------------------------------------
 Rotational constants (GHZ):      0.0073182      0.0066777      0.0062596
 Leave Link  202 at Thu Jun  6 11:27:20 2019, MaxMem= 12079595520 cpu:         0.4
 (Enter /home/scicons/Gaussian09.D01/l301.exe)
 General basis read from cards:  (5D, 7F)
 Centers:       1      2      3      4      5      6      7      8      9
 Lanl2dz
 ****
 Centers:      15     16     17     18     20     21     24     27     30     33
 Centers:      34     35     36     37     38     41     44     47     50     51
 Centers:      53     55     61     62     63     64     66     67     70     73
 Centers:      76     79     80     81     82     83     84     87     90     93
 Centers:      96     97     99    101    106    107    109    111    113    115
 Centers:     116    117    118    120    122    124    130    131    133    135
 Centers:     137    139    140    141    142    144    146    148    154    156
 Centers:     158    160    162    163    164    165    167    169    171    173
 Centers:     178    180    182    184    186    187    188    189    191    193
 Centers:     195    197    202    204    206    208    210    211    212    213
 Centers:     215    217    219    221    226    228    230    232    234    235
 Centers:     236    237    239    241    243    245    250    251    253    255
 Centers:     257    259    260    261    262    264    266    268    274    275
 Centers:     277    279    281    283    284    285    286    288    290    292
 Centers:      11     13     14     19     22     23     25     26     28     29
 Centers:      31     32     39     40     42     43     45     46     48     49
 Centers:      52     54     57     59     60     65     68     69     71     72
 Centers:      74     75     77     78     85     86     88     89     91     92
 Centers:      94     95     98    100    104    108    110    112    114    119
 Centers:     121    123    125    128    132    134    136    138    143    145
 Centers:     147    149    153    155    157    159    161    166    168    170
 Centers:     172    177    179    181    183    185    190    192    194    196
 Centers:     201    203    205    207    209    214    216    218    220    225
 Centers:     227    229    231    233    238    240    242    244    249    252
 Centers:     254    256    258    263    265    267    269    273    276    278
 Centers:     280    282    287    289    291    293     10     12     56     58
 Centers:     102    103    105    126    127    129    150    151    152    174
 Centers:     175    176    198    199    200    222    223    224    246    247
 Centers:     248    270    271    272
 6-31g(d)
 ****
 ======================================================================================================
                                       Pseudopotential Parameters
 ======================================================================================================
  Center     Atomic      Valence      Angular      Power
  Number     Number     Electrons     Momentum     of R      Exponent        Coefficient   SO-Coeffient
 ======================================================================================================
    1         47           19
                                      F and up 
                                                     0      568.7006237       -0.05879300    0.00000000
                                                     1      162.3579066      -20.11451460    0.00000000
                                                     2       51.1025755     -104.27331140    0.00000000
                                                     2       16.9205822      -40.45397870    0.00000000
                                                     2        6.1669596       -3.44200090    0.00000000
                                      S - F
                                                     0       76.0974658        2.98615270    0.00000000
                                                     1       15.3327359       35.15764600    0.00000000
                                                     2       18.7715345      450.18099060    0.00000000
                                                     2       13.3663294     -866.02483080    0.00000000
                                                     2        9.8236948      523.11101760    0.00000000
                                      P - F
                                                     0       56.3318043        4.96406710    0.00000000
                                                     1       69.0609098       21.50282190    0.00000000
                                                     2       19.2717998      546.02754530    0.00000000
                                                     2       12.5770654     -600.38225560    0.00000000
                                                     2        8.7956670      348.29492890    0.00000000
                                      D - F
                                                     0       53.4641078        3.04674860    0.00000000
                                                     1       40.1975457       23.36567050    0.00000000
                                                     2       11.9086073      777.25401170    0.00000000
                                                     2        9.7528183    -1238.86024230    0.00000000
                                                     2        8.1788997      608.06771210    0.00000000
    2         47           19
                                      F and up 
                                                     0      568.7006237       -0.05879300    0.00000000
                                                     1      162.3579066      -20.11451460    0.00000000
                                                     2       51.1025755     -104.27331140    0.00000000
                                                     2       16.9205822      -40.45397870    0.00000000
                                                     2        6.1669596       -3.44200090    0.00000000
                                      S - F
                                                     0       76.0974658        2.98615270    0.00000000
                                                     1       15.3327359       35.15764600    0.00000000
                                                     2       18.7715345      450.18099060    0.00000000
                                                     2       13.3663294     -866.02483080    0.00000000
                                                     2        9.8236948      523.11101760    0.00000000
                                      P - F
                                                     0       56.3318043        4.96406710    0.00000000
                                                     1       69.0609098       21.50282190    0.00000000
                                                     2       19.2717998      546.02754530    0.00000000
                                                     2       12.5770654     -600.38225560    0.00000000
                                                     2        8.7956670      348.29492890    0.00000000
                                      D - F
                                                     0       53.4641078        3.04674860    0.00000000
                                                     1       40.1975457       23.36567050    0.00000000
                                                     2       11.9086073      777.25401170    0.00000000
                                                     2        9.7528183    -1238.86024230    0.00000000
                                                     2        8.1788997      608.06771210    0.00000000
    3         47           19
                                      F and up 
                                                     0      568.7006237       -0.05879300    0.00000000
                                                     1      162.3579066      -20.11451460    0.00000000
                                                     2       51.1025755     -104.27331140    0.00000000
                                                     2       16.9205822      -40.45397870    0.00000000
                                                     2        6.1669596       -3.44200090    0.00000000
[...]
    27  C   -0.289847
    28  H    0.181511
    29  H    0.135740
    30  C   -0.316380
    31  H    0.193509
    32  H    0.178642
    33  C   -0.006249
    34  C   -0.072752
    35  C    0.209472
    36  C   -0.045524
    37  C    0.029201
    38  C   -0.351930
    39  H    0.160699
    40  H    0.156280
    41  C   -0.286196
    42  H    0.145685
    43  H    0.142947
    44  C   -0.271728
    45  H    0.158767
    46  H    0.166332
    47  C   -0.311650
    48  H    0.169176
    49  H    0.185668
    50  C    0.069351
    51  C   -0.141397
    52  H    0.121300
    53  C   -0.111647
    54  H    0.113216
    55  C    0.134335
    56  N   -0.529056
    57  H    0.323048
    58  N   -0.728501
    59  H    0.326726
    60  H    0.324564
    61  C    0.059641
    62  C   -0.391420
    63  C    0.209870
    64  C   -0.276170
    65  H    0.108774
    66  C    0.066653
    67  C   -0.316727
    68  H    0.166153
    69  H    0.141790
    70  C   -0.284193
    71  H    0.130383
    72  H    0.165112
    73  C   -0.285511
    74  H    0.149714
    75  H    0.181625
    76  C   -0.314866
    77  H    0.181569
    78  H    0.187094
    79  C    0.021030
    80  C   -0.071000
    81  C    0.217851
    82  C   -0.061302
    83  C    0.035888
    84  C   -0.362100
    85  H    0.159683
    86  H    0.159920
    87  C   -0.277395
    88  H    0.143597
    89  H    0.134714
    90  C   -0.265787
    91  H    0.165844
    92  H    0.159244
    93  C   -0.345919
    94  H    0.192825
    95  H    0.175947
    96  C    0.067973
    97  C   -0.124571
    98  H    0.123457
    99  C   -0.110632
   100  H    0.118456
   101  C    0.150602
   102  N   -0.555668
   103  N   -0.632809
   104  H    0.311494
   105  N   -0.462464
   106  C    0.257603
   107  C   -0.169578
   108  H    0.126577
   109  C   -0.092122
   110  H    0.131481
   111  C   -0.132365
   112  H    0.153659
   113  C   -0.091450
   114  H    0.146233
   115  C    0.264644
   116  C    0.497851
   117  C    0.297850
   118  C   -0.146120
   119  H    0.134035
   120  C   -0.050697
   121  H    0.169494
   122  C   -0.111195
   123  H    0.143002
   124  C    0.071554
   125  H    0.160270
   126  N   -0.542046
   127  N   -0.629933
   128  H    0.310831
   129  N   -0.437971
   130  C    0.199838
   131  C   -0.130637
   132  H    0.120468
   133  C   -0.094182
   134  H    0.130743
   135  C   -0.105918
   136  H    0.146694
   137  C   -0.168099
   138  H    0.135775
   139  C    0.297654
   140  C    0.472102
   141  C    0.291874
   142  C   -0.137406
   143  H    0.127001
   144  C   -0.067075
   145  H    0.171016
   146  C   -0.099288
   147  H    0.161109
   148  C    0.035209
   149  H    0.183513
   150  N   -0.426207
   151  N   -0.538975
   152  N   -0.636290
   153  H    0.309493
   154  C    0.039088
   155  H    0.177634
   156  C   -0.091368
   157  H    0.155983
   158  C   -0.087347
   159  H    0.168525
   160  C   -0.108251
   161  H    0.128807
   162  C    0.276004
   163  C    0.477479
   164  C    0.306269
   165  C   -0.167231
   166  H    0.132607
   167  C   -0.090920
   168  H    0.143298
   169  C   -0.119557
   170  H    0.128130
   171  C   -0.130201
   172  H    0.128493
   173  C    0.221206
   174  N   -0.435263
   175  N   -0.570725
   176  N   -0.645164
   177  H    0.312694
   178  C    0.074774
   179  H    0.135801
   180  C   -0.110636
   181  H    0.156333
   182  C   -0.068215
   183  H    0.171124
   184  C   -0.132406
   185  H    0.134577
   186  C    0.301418
   187  C    0.477361
   188  C    0.358158
   189  C   -0.158078
   190  H    0.137741
   191  C   -0.065352
   192  H    0.156481
   193  C   -0.151247
   194  H    0.135041
   195  C   -0.108247
   196  H    0.136819
   197  C    0.193541
   198  N   -0.437660
   199  N   -0.562566
   200  N   -0.628511
   201  H    0.317025
   202  C    0.064645
   203  H    0.166227
   204  C   -0.090806
   205  H    0.156800
   206  C   -0.071834
   207  H    0.164412
   208  C   -0.106359
   209  H    0.132353
   210  C    0.277341
   211  C    0.476275
   212  C    0.298325
   213  C   -0.119395
   214  H    0.146843
   215  C   -0.103425
   216  H    0.148571
   217  C   -0.114268
   218  H    0.110363
   219  C   -0.123556
   220  H    0.122782
   221  C    0.202893
   222  N   -0.451830
   223  N   -0.536273
   224  N   -0.627014
   225  H    0.314283
   226  C    0.070958
   227  H    0.163870
   228  C   -0.077823
   229  H    0.155768
   230  C   -0.078123
   231  H    0.164441
   232  C   -0.115056
   233  H    0.127278
   234  C    0.280380
   235  C    0.450635
   236  C    0.277423
   237  C   -0.128533
   238  H    0.142945
   239  C   -0.116464
   240  H    0.151037
   241  C   -0.125125
   242  H    0.128121
   243  C   -0.157662
   244  H    0.133721
   245  C    0.239707
   246  N   -0.528048
   247  N   -0.426716
   248  N   -0.626034
   249  H    0.314694
   250  C    0.219709
   251  C   -0.137596
   252  H    0.130993
   253  C   -0.137765
   254  H    0.130489
   255  C   -0.116925
   256  H    0.150474
   257  C   -0.123456
   258  H    0.142414
   259  C    0.292832
   260  C    0.439179
   261  C    0.261915
   262  C   -0.127695
   263  H    0.124303
   264  C   -0.063352
   265  H    0.162026
   266  C   -0.083049
   267  H    0.152974
   268  C    0.060663
   269  H    0.166170
   270  N   -0.583131
   271  N   -0.448868
   272  N   -0.621237
   273  H    0.317291
   274  C    0.225150
   275  C   -0.127093
   276  H    0.118713
   277  C   -0.100624
   278  H    0.117210
   279  C   -0.111338
   280  H    0.150405
   281  C   -0.124468
   282  H    0.146669
   283  C    0.295699
   284  C    0.480049
   285  C    0.289656
   286  C   -0.127990
   287  H    0.130223
   288  C   -0.059214
   289  H    0.165045
   290  C   -0.101876
   291  H    0.150465
   292  C    0.077536
   293  H    0.167396
 Sum of Mulliken charges =   5.00000
 Mulliken charges with hydrogens summed into heavy atoms:
               1
     1  Ag   1.214662
     2  Ag   0.062118
     3  Ag   0.103150
     4  Ag   0.268291
     5  Ag  -0.133388
     6  Ag  -0.138928
     7  Ag   0.234830
     8  Ag   0.103062
     9  Ag   0.057187
    10  N   -0.218401
    12  N   -0.076704
    15  C    0.069123
    16  C   -0.400767
    17  C    0.238301
    18  C   -0.170248
    20  C    0.086394
    21  C   -0.023926
    24  C    0.031351
    27  C    0.027405
    30  C    0.055771
    33  C   -0.006249
    34  C   -0.072752
    35  C    0.209472
    36  C   -0.045524
    37  C    0.029201
    38  C   -0.034951
    41  C    0.002437
    44  C    0.053371
    47  C    0.043194
    50  C    0.069351
    51  C   -0.020096
    53  C    0.001569
    55  C    0.134335
    56  N   -0.206007
    58  N   -0.077210
    61  C    0.059641
    62  C   -0.391420
    63  C    0.209870
    64  C   -0.167395
    66  C    0.066653
    67  C   -0.008785
    70  C    0.011301
    73  C    0.045828
    76  C    0.053797
    79  C    0.021030
    80  C   -0.071000
    81  C    0.217851
    82  C   -0.061302
    83  C    0.035888
    84  C   -0.042497
    87  C    0.000916
    90  C    0.059301
    93  C    0.022853
    96  C    0.067973
    97  C   -0.001114
    99  C    0.007824
   101  C    0.150602
   102  N   -0.555668
   103  N   -0.321315
   105  N   -0.462464
   106  C    0.257603
   107  C   -0.043001
   109  C    0.039359
   111  C    0.021294
   113  C    0.054784
   115  C    0.264644
   116  C    0.497851
   117  C    0.297850
   118  C   -0.012085
   120  C    0.118797
   122  C    0.031807
   124  C    0.231824
   126  N   -0.542046
   127  N   -0.319102
   129  N   -0.437971
   130  C    0.199838
   131  C   -0.010169
   133  C    0.036561
   135  C    0.040776
   137  C   -0.032324
   139  C    0.297654
   140  C    0.472102
   141  C    0.291874
   142  C   -0.010405
   144  C    0.103941
   146  C    0.061822
   148  C    0.218722
   150  N   -0.426207
   151  N   -0.538975
   152  N   -0.326797
   154  C    0.216722
   156  C    0.064615
   158  C    0.081177
   160  C    0.020556
   162  C    0.276004
   163  C    0.477479
   164  C    0.306269
   165  C   -0.034624
   167  C    0.052378
   169  C    0.008573
   171  C   -0.001709
   173  C    0.221206
   174  N   -0.435263
   175  N   -0.570725
   176  N   -0.332469
   178  C    0.210575
   180  C    0.045697
   182  C    0.102908
   184  C    0.002170
   186  C    0.301418
   187  C    0.477361
   188  C    0.358158
   189  C   -0.020337
   191  C    0.091130
   193  C   -0.016206
   195  C    0.028571
   197  C    0.193541
   198  N   -0.437660
   199  N   -0.562566
   200  N   -0.311486
   202  C    0.230873
   204  C    0.065993
   206  C    0.092577
   208  C    0.025994
   210  C    0.277341
   211  C    0.476275
   212  C    0.298325
   213  C    0.027448
   215  C    0.045146
   217  C   -0.003905
   219  C   -0.000774
   221  C    0.202893
   222  N   -0.451830
   223  N   -0.536273
   224  N   -0.312731
   226  C    0.234827
   228  C    0.077946
   230  C    0.086318
   232  C    0.012222
   234  C    0.280380
   235  C    0.450635
   236  C    0.277423
   237  C    0.014412
   239  C    0.034573
   241  C    0.002996
   243  C   -0.023941
   245  C    0.239707
   246  N   -0.528048
   247  N   -0.426716
   248  N   -0.311340
   250  C    0.219709
   251  C   -0.006602
   253  C   -0.007276
   255  C    0.033549
   257  C    0.018958
   259  C    0.292832
   260  C    0.439179
   261  C    0.261915
   262  C   -0.003392
   264  C    0.098674
   266  C    0.069925
   268  C    0.226833
   270  N   -0.583131
   271  N   -0.448868
   272  N   -0.303945
   274  C    0.225150
   275  C   -0.008380
   277  C    0.016586
   279  C    0.039067
   281  C    0.022202
   283  C    0.295699
   284  C    0.480049
   285  C    0.289656
   286  C    0.002233
   288  C    0.105831
   290  C    0.048589
   292  C    0.244931
 Electronic spatial extent (au):  <R**2>=         202521.7907
 Charge=              5.0000 electrons
 Dipole moment (field-independent basis, Debye):
    X=              3.8092    Y=              2.2574    Z=             -0.6481  Tot=              4.4750
 Quadrupole moment (field-independent basis, Debye-Ang):
   XX=           -573.2628   YY=           -381.0513   ZZ=           -596.5519
   XY=            147.9021   XZ=            -52.6034   YZ=             15.2875
 Traceless Quadrupole moment (field-independent basis, Debye-Ang):
   XX=            -56.3075   YY=            135.9040   ZZ=            -79.5965
   XY=            147.9021   XZ=            -52.6034   YZ=             15.2875
 Octapole moment (field-independent basis, Debye-Ang**2):
  XXX=            437.1900  YYY=            249.7673  ZZZ=            -32.3998  XYY=            -19.8745
  XXY=            202.6943  XXZ=            -79.2564  XZZ=            -14.9754  YZZ=            -77.9618
  YYZ=             47.2322  XYZ=            -29.9185
 Hexadecapole moment (field-independent basis, Debye-Ang**3):
 XXXX=         -76679.3232 YYYY=         -57133.3708 ZZZZ=         -60788.2291 XXXY=           5771.9841
 XXXZ=           -888.8058 YYYX=           1375.1961 YYYZ=           2305.6861 ZZZX=          -5283.1813
 ZZZY=           1804.7265 XXYY=         -22397.6295 XXZZ=         -24169.3885 YYZZ=         -19717.6154
 XXYZ=          -2001.4049 YYXZ=          -1260.7901 ZZXY=           1717.4525
 N-N= 6.530918752454D+04 E-N=-1.491530709002D+05  KE= 7.414180981085D+03
 Leave Link  601 at Fri Jun  7 16:39:08 2019, MaxMem= 12079595520 cpu:       162.5
 (Enter /home/scicons/Gaussian09.D01/l9999.exe)
 1\1\GINC-CU06\SP\RB3LYP TD-FC\GenECP\C140H116Ag9N28(5+)\LIJUN\07-Jun-2
 019\0\\#p td=(nstates=60) b3lyp/genecp geom=connectivity\\Title Card R
 equired\\5,1\Ag,0,10.2561,8.1922,7.3517\Ag,0,12.6568,6.8832,6.9532\Ag,
 0,12.9809,6.4525,4.0567\Ag,0,10.5434,7.4511,3.5833\Ag,0,8.4721,7.147,5
 .5558\Ag,0,7.7725,9.1602,8.0242\Ag,0,8.5768,8.7638,10.8244\Ag,0,10.95,
 9.8515,11.5184\Ag,0,12.0632,9.5402,8.8603\N,0,10.9403,4.607,4.918\H,0,
 11.219,4.1626,4.2365\N,0,12.297,1.0329,6.8615\H,0,12.0381,1.8116,7.231
 1\H,0,13.1771,1.0975,6.6845\C,0,11.0218,5.9808,5.0549\C,0,10.5217,6.33
 94,6.343\C,0,10.085,5.0814,6.9476\C,0,9.4703,4.7481,8.142\H,0,9.2962,5
 .4155,8.7659\C,0,9.1051,3.4285,8.4309\C,0,8.3556,3.0717,9.6796\H,0,8.8
 05,3.4998,10.4251\H,0,7.4718,3.4663,9.6153\C,0,8.1894,1.6767,10.0111\H
 ,0,7.5129,1.574,10.6987\H,0,9.0236,1.3095,10.343\C,0,7.7387,0.9087,8.6
 681\H,0,7.4983,-0.0121,8.8559\H,0,6.9866,1.3532,8.2467\C,0,8.9912,0.98
 43,7.7854\H,0,9.7198,0.5204,8.2267\H,0,8.816,0.5322,6.9453\C,0,9.4114,
 2.4173,7.5021\C,0,10.0519,2.6969,6.3062\C,0,10.3403,4.0465,6.0464\C,0,
 10.4555,1.6239,5.3174\C,0,9.7249,1.395,4.1799\C,0,8.4296,2.1609,3.9138
 \H,0,7.7787,1.9117,4.5884\H,0,8.6053,3.1097,4.013\C,0,7.8298,1.9248,2.
 5604\H,0,6.885,2.1414,2.5963\H,0,8.2458,2.5288,1.9256\C,0,7.9778,0.568
 4,2.0771\H,0,7.4713,-0.0233,2.6552\H,0,7.5911,0.5121,1.1893\C,0,9.3321
 ,0.1006,2.0169\H,0,9.7723,0.5153,1.2585\H,0,9.3251,-0.8575,1.8654\C,0,
 10.1373,0.3907,3.2664\C,0,11.2907,-0.2803,3.5495\H,0,11.6098,-0.8883,2
 .9223\C,0,11.9938,-0.1117,4.6866\H,0,12.7403,-0.6398,4.8563\C,0,11.594
 6,0.8657,5.6163\N,0,9.3439,11.6479,9.9028\H,0,9.1081,12.0298,10.6364\N
 ,0,11.3362,15.3737,9.6147\H,0,11.4533,14.6205,9.1361\H,0,11.8703,15.32
 1,10.3371\C,0,9.6115,10.3012,9.7795\C,0,9.936,10.024,8.4021\C,0,9.8349
 ,11.3281,7.732\C,0,10.0006,11.7402,6.4014\H,0,10.227,11.1238,5.7429\C,
 0,9.8196,13.1025,6.0734\C,0,9.8897,13.6563,4.6698\H,0,10.7276,14.1324,
 4.5598\H,0,9.8827,12.9194,4.039\C,0,8.8101,14.5394,4.3644\H,0,8.0102,1
 4.0097,4.2212\H,0,9.0113,14.9951,3.532\C,0,8.5217,15.5526,5.3941\H,0,7
 .5868,15.4817,5.6428\H,0,8.655,16.432,5.007\C,0,9.3491,15.4487,6.629\H
 ,0,10.2203,15.8405,6.4605\H,0,8.9263,15.9587,7.3375\C,0,9.5264,14.0556
 ,7.0782\C,0,9.3393,13.6648,8.4135\C,0,9.5038,12.3121,8.6882\C,0,8.9922
 ,14.6443,9.4891\C,0,7.6331,14.7532,9.9152\C,0,6.5886,13.9138,9.252\H,0
 ,6.8651,12.9845,9.2819\H,0,6.5212,14.1727,8.3197\C,0,5.1772,14.0473,9.
 9214\H,0,4.5195,13.8349,9.2408\H,0,5.1163,13.3524,10.5954\C,0,4.7945,1
 5.1649,10.488\H,0,4.0769,14.9622,11.1085\H,0,4.4297,15.7455,9.8019\C,0
 ,5.892,15.9434,11.251\H,0,5.7112,16.8902,11.1427\H,0,5.7952,15.7408,12
 .1947\C,0,7.3011,15.7117,10.8854\C,0,8.3275,16.4373,11.4713\H,0,8.1255
 ,17.0228,12.165\C,0,9.6017,16.322,11.07\H,0,10.2576,16.8486,11.4668\C,
 0,9.9554,15.4227,10.0654\N,0,14.7066,7.0694,2.8156\N,0,16.8587,7.0386,
 2.3657\H,0,17.6788,6.7799,2.371\N,0,14.8317,4.9526,4.5236\C,0,14.9656,
 8.0902,1.9334\C,0,14.1413,9.0127,1.351\H,0,13.2249,9.0008,1.5094\C,0,1
 4.7208,9.99,0.4974\H,0,14.1987,10.6399,0.0852\C,0,16.1637,9.9374,0.290
 9\H,0,16.5388,10.5873,-0.2586\C,0,17.0147,9.0106,0.8383\H,0,17.9308,8.
 9883,0.6798\C,0,16.3463,8.1103,1.6566\C,0,15.8365,6.4692,3.0508\C,0,15
 .9638,5.3264,3.9061\C,0,17.1281,4.609,4.0203\H,0,17.8978,4.8882,3.5792
 \C,0,17.1438,3.4429,4.8147\H,0,17.9252,2.9487,4.9152\C,0,16.0239,3.065
 ,5.4152\H,0,16.0243,2.3009,5.9453\C,0,14.8303,3.8044,5.2627\H,0,14.045
 1,3.5099,5.6647\N,0,14.8097,7.2517,6.8697\N,0,16.8825,6.5516,7.231\H,0
 ,17.5345,6.0867,7.5444\N,0,13.7139,5.1845,8.261\C,0,15.7068,8.0666,6.1
 708\C,0,15.46,9.1226,5.3025\H,0,14.595,9.4194,5.1333\C,0,16.5446,9.707
 5,4.7066\H,0,16.4099,10.4144,4.1174\C,0,17.771,9.2986,4.9433\H,0,18.47
 8,9.7402,4.5309\C,0,18.0498,8.2312,5.7868\H,0,18.9208,7.9405,5.9347\C,
 0,16.9841,7.6307,6.3869\C,0,15.5696,6.3559,7.4775\C,0,15.0032,5.2354,8
 .2662\C,0,15.8034,4.2916,8.8938\H,0,16.7286,4.3832,8.9157\C,0,15.168,3
 .1942,9.4943\H,0,15.6753,2.509,9.8658\C,0,13.8206,3.1335,9.5326\H,0,13
 .3811,2.4302,9.9534\C,0,13.1058,4.1742,8.9118\H,0,12.1767,4.1641,8.952
 5\N,0,13.7221,11.0038,7.8971\N,0,13.967,8.8639,9.6687\N,0,16.1653,8.97
 05,9.7686\H,0,16.963,9.27,9.6518\C,0,13.5571,12.0366,7.1072\H,0,12.695
 3,12.2097,6.8037\C,0,14.5395,12.8701,6.6983\H,0,14.3749,13.6075,6.1561
 \C,0,15.8613,12.532,7.1647\H,0,16.5873,13.0546,6.9106\C,0,16.0586,11.4
 408,7.9841\H,0,16.9036,11.211,8.2972\C,0,14.9239,10.6979,8.3199\C,0,15
 .0331,9.4986,9.2171\C,0,15.8316,7.897,10.5311\C,0,16.5399,7.0574,11.28
 22\H,0,17.4616,7.1506,11.3641\C,0,15.8884,6.0745,11.9169\H,0,16.375,5.
 4105,12.3497\C,0,14.5658,6.0292,11.9406\H,0,14.1514,5.3939,12.4787\C,0
 ,13.7663,6.8957,11.191\H,0,12.838,6.8392,11.1956\C,0,14.4261,7.8226,10
 .4576\N,0,12.9423,11.3819,11.5461\N,0,12.2262,9.2626,13.1897\N,0,14.23
 61,9.1126,14.1155\H,0,15.0553,9.2915,14.3066\C,0,13.2944,12.4902,10.85
 72\H,0,12.6503,12.8442,10.2874\C,0,14.4901,13.1483,10.9042\H,0,14.6454
 ,13.9111,10.3953\C,0,15.5581,12.5762,11.8281\H,0,16.4146,12.9327,11.89
 41\C,0,15.1381,11.4736,12.5637\H,0,15.7223,11.0974,13.1819\C,0,13.8907
 ,10.9208,12.4091\C,0,13.4854,9.7855,13.2107\C,0,13.4922,8.0954,14.6873
 \C,0,13.7957,7.1682,15.5999\H,0,14.6591,7.0984,15.9386\C,0,12.7908,6.3
 103,16.0315\H,0,12.9431,5.6674,16.686\C,0,11.5378,6.4659,15.4282\H,0,1
 0.8812,5.8672,15.7025\C,0,11.1318,7.4253,14.4439\H,0,10.2724,7.5165,14
 .1004\C,0,12.2299,8.1968,14.0863\N,0,8.6948,7.3139,2.0313\N,0,10.4172,
 9.3755,2.5528\N,0,9.5405,10.7005,1.0135\H,0,9.0176,10.9735,0.3877\C,0,
 7.8111,6.3332,1.8338\H,0,7.962,5.5286,2.2752\C,0,6.6859,6.413,1.0252\H
 ,0,6.0917,5.7034,0.9348\C,0,6.5028,7.6128,0.3623\H,0,5.7644,7.7212,-0.
 1925\C,0,7.3937,8.6458,0.5103\H,0,7.2771,9.4483,0.055\C,0,8.4722,8.456
 3,1.3588\C,0,9.466,9.5028,1.6316\C,0,10.5942,11.4172,1.5503\C,0,11.146
 ,12.6408,1.2941\H,0,10.8047,13.1907,0.6263\C,0,12.2014,13.0254,2.0406\
 H,0,12.572,13.8679,1.9073\C,0,12.7588,12.1646,3.0294\H,0,13.5045,12.44
 54,3.5089\C,0,12.221,10.9343,3.2887\H,0,12.5774,10.3793,3.9444\C,0,11.
 128,10.5488,2.5387\N,0,6.6329,5.5976,5.5546\N,0,6.7508,8.1989,4.6303\N
 ,0,4.6804,8.1071,3.8203\H,0,3.8856,7.8179,3.6644\C,0,6.5624,4.3372,6.0
 43\H,0,7.3502,3.9477,6.3473\C,0,5.4379,3.6093,6.1199\H,0,5.4348,2.7442
 ,6.4611\C,0,4.2647,4.2289,5.6551\H,0,3.464,3.7565,5.681\C,0,4.2664,5.4
 991,5.1687\H,0,3.488,5.9214,4.8847\C,0,5.4965,6.1204,5.1239\C,0,5.636,
 7.4491,4.5423\C,0,5.1893,9.2966,3.3865\C,0,4.6711,10.3183,2.598\H,0,3.
 8061,10.2805,2.2584\C,0,5.4938,11.3809,2.3457\H,0,5.1899,12.0729,1.803
 8\C,0,6.7817,11.4498,2.8847\H,0,7.3146,12.1878,2.6944\C,0,7.2777,10.45
 56,3.687\H,0,8.1307,10.5205,4.0517\C,0,6.494,9.3703,3.9384\N,0,5.8052,
 8.1241,7.9651\N,0,6.1992,10.7445,7.0646\N,0,3.5767,8.3363,7.8305\H,0,2
 .8062,8.672,7.6486\C,0,5.209,7.0016,8.4935\C,0,5.773,5.8516,9.0219\H,0
 ,6.6943,5.7248,9.0287\C,0,4.9122,4.8987,9.5392\H,0,5.2529,4.126,9.9286
 \C,0,3.493,5.1048,9.474\H,0,2.9293,4.4502,9.8183\C,0,2.9528,6.2,8.9381
 \H,0,2.0306,6.3187,8.9191\C,0,3.7966,7.1454,8.4163\C,0,4.8054,8.9333,7
 .5688\C,0,4.9819,10.245,6.9706\C,0,3.9216,10.9276,6.3573\H,0,3.0634,10
 .5695,6.3466\C,0,4.1859,12.1246,5.781\H,0,3.5109,12.5707,5.3225\C,0,5.
 4358,12.6905,5.8631\H,0,5.6243,13.5264,5.5017\C,0,6.4021,11.9342,6.521
 \H,0,7.2578,12.2933,6.5835\N,0,7.9765,6.9036,11.7487\N,0,6.1811,8.9034
 ,11.2108\N,0,6.4082,5.523,12.6036\H,0,5.6411,5.2252,12.8534\C,0,8.5877
 ,5.7279,12.1781\C,0,9.934,5.3479,12.1376\H,0,10.5843,5.8991,11.7658\C,
 0,10.2483,4.1307,12.6693\H,0,11.1374,3.8581,12.6764\C,0,9.2953,3.2985,
 13.1923\H,0,9.5643,2.4735,13.5267\C,0,7.9102,3.6342,13.2496\H,0,7.2704
 ,3.0662,13.6142\C,0,7.5954,4.8701,12.7204\C,0,6.6484,6.7406,12.0171\C,
 0,5.6831,7.7516,11.7256\C,0,4.3354,7.5919,11.9617\H,0,4.0088,6.8075,12
 .3399\C,0,3.4574,8.6493,11.6157\H,0,2.5391,8.5714,11.7405\C,0,4.005,9.
 7881,11.0922\H,0,3.4546,10.499,10.8543\C,0,5.3294,9.8845,10.9205\H,0,5
 .6726,10.6791,10.5804\\Version=ES64L-G09RevD.01\State=1-A\HF=-8246.297
 1045\RMSD=1.417e-09\PG=C01 [X(C140H116Ag9N28)]\\@


 TO SEE A WORLD IN A GRAIN OF SAND
 AND A HEAVEN IN A WILD FLOWER
 HOLD INFINITY IN THE PALM OF YOUR HAND
 AND ETERNITY IN AN HOUR

                       -- WILLIAM BLAKE
 Job cpu time:      27 days  9 hours 51 minutes 47.0 seconds.
 File lengths (MBytes):  RWF= 113968 Int=      0 D2E=      0 Chk=  16286 Scr=      1
 Normal termination of Gaussian 09 at Fri Jun  7 16:42:34 2019.
