 Entering Gaussian System, Link 0=g16
 Input=Sm.gjf
 Output=Sm.log
 Initial command:
 /home/scicons/gaussian16/g16/l1.exe "/tmp/tmp.oLNfoc93U5/Gau-224683.inp" -scrdir="/tmp/tmp.oLNfoc93U5/"
 Entering Link 1 = /home/scicons/gaussian16/g16/l1.exe PID=    224684.
  
 Copyright (c) 1988-2017, Gaussian, Inc.  All Rights Reserved.
  
 This is part of the Gaussian(R) 16 program.  It is based on
 the Gaussian(R) 09 system (copyright 2009, Gaussian, Inc.),
 the Gaussian(R) 03 system (copyright 2003, Gaussian, Inc.),
 the Gaussian(R) 98 system (copyright 1998, Gaussian, Inc.),
 the Gaussian(R) 94 system (copyright 1995, Gaussian, Inc.),
 the Gaussian 92(TM) system (copyright 1992, Gaussian, Inc.),
 the Gaussian 90(TM) system (copyright 1990, Gaussian, Inc.),
 the Gaussian 88(TM) system (copyright 1988, Gaussian, Inc.),
 the Gaussian 86(TM) system (copyright 1986, Carnegie Mellon
 University), and the Gaussian 82(TM) system (copyright 1983,
 Carnegie Mellon University). Gaussian is a federally registered
 trademark of Gaussian, Inc.
  
 This software contains proprietary and confidential information,
 including trade secrets, belonging to Gaussian, Inc.
  
 This software is provided under written license and may be
 used, copied, transmitted, or stored only in accord with that
 written license.
  
 The following legend is applicable only to US Government
 contracts under FAR:
  
                    RESTRICTED RIGHTS LEGEND
  
 Use, reproduction and disclosure by the US Government is
 subject to restrictions as set forth in subparagraphs (a)
 and (c) of the Commercial Computer Software - Restricted
 Rights clause in FAR 52.227-19.
  
 Gaussian, Inc.
 340 Quinnipiac St., Bldg. 40, Wallingford CT 06492
  
  
 ---------------------------------------------------------------
 Warning -- This program may not be used in any manner that
 competes with the business of Gaussian, Inc. or will provide
 assistance to any competitor of Gaussian, Inc.  The licensee
 of this program is prohibited from giving any competitor of
 Gaussian, Inc. access to this program.  By using this program,
 the user acknowledges that Gaussian, Inc. is engaged in the
 business of creating and licensing software in the field of
 computational chemistry and represents and warrants to the
 licensee that it is not a competitor of Gaussian, Inc. and that
 it will not use this program in any manner prohibited above.
 ---------------------------------------------------------------
  

 Cite this work as:
 Gaussian 16, Revision B.01,
 M. J. Frisch, G. W. Trucks, H. B. Schlegel, G. E. Scuseria, 
 M. A. Robb, J. R. Cheeseman, G. Scalmani, V. Barone, 
 G. A. Petersson, H. Nakatsuji, X. Li, M. Caricato, A. V. Marenich, 
 J. Bloino, B. G. Janesko, R. Gomperts, B. Mennucci, H. P. Hratchian, 
 J. V. Ortiz, A. F. Izmaylov, J. L. Sonnenberg, D. Williams-Young, 
 F. Ding, F. Lipparini, F. Egidi, J. Goings, B. Peng, A. Petrone, 
 T. Henderson, D. Ranasinghe, V. G. Zakrzewski, J. Gao, N. Rega, 
 G. Zheng, W. Liang, M. Hada, M. Ehara, K. Toyota, R. Fukuda, 
 J. Hasegawa, M. Ishida, T. Nakajima, Y. Honda, O. Kitao, H. Nakai, 
 T. Vreven, K. Throssell, J. A. Montgomery, Jr., J. E. Peralta, 
 F. Ogliaro, M. J. Bearpark, J. J. Heyd, E. N. Brothers, K. N. Kudin, 
 V. N. Staroverov, T. A. Keith, R. Kobayashi, J. Normand, 
 K. Raghavachari, A. P. Rendell, J. C. Burant, S. S. Iyengar, 
 J. Tomasi, M. Cossi, J. M. Millam, M. Klene, C. Adamo, R. Cammi, 
 J. W. Ochterski, R. L. Martin, K. Morokuma, O. Farkas, 
 J. B. Foresman, and D. J. Fox, Gaussian, Inc., Wallingford CT, 2016.
 
 ******************************************
 Gaussian 16:  ES64L-G16RevB.01 20-Dec-2017
                25-Jun-2019 
 ******************************************
 %chk=Sm.chk
 %mem=60GB
 %nproc=24
 Will use up to   24 processors via shared memory.
 ----------------------------------------------------------------
 #P PBE1PBE/genecp EmpiricalDispersion=GD3 pop=(nbo6read) scf=xqc
 ----------------------------------------------------------------
 1/38=1,163=2,172=1/1;
 2/12=2,17=6,18=5,40=1/2;
 3/5=7,11=2,16=1,17=8,25=1,30=1,74=-13,124=31/1,2,3;
 4//1;
 5/5=2,8=3,13=1,38=5/2,8;
 6/7=2,8=2,9=2,10=2,28=1,40=2,113=1,114=1,124=2103/1,12;
 99/5=1,9=1/99;
 Leave Link    1 at Tue Jun 25 09:52:07 2019, MaxMem=  8053063680 cpu:               3.4 elap:               0.2
 (Enter /home/scicons/gaussian16/g16/l101.exe)
 --
 Sm
 --
 Symbolic Z-matrix:
 Charge = -2 Multiplicity =11
 Sm                    0.01189  -0.06167  -2.15113 
 N                    -1.39222  -1.15968  -3.79229 
 N                     1.5679    0.66648  -3.81782 
 H                     0.31436   2.86971  -2.48697 
 C                    -0.2674   -1.50406  -0.03211 
 C                    -1.36754  -0.5582    0.01291 
 C                    -1.11328   0.8792   -0.16183 
 C                     0.27682   1.39147  -0.03248 
 C                     1.37809   0.40459   0.00568 
 C                     1.09799  -1.02607  -0.08411 
 Si                   -1.10454  -2.57789  -4.70544 
 C                    -2.05093  -0.06569  -4.30996 
 Si                    2.68348  -0.29733  -4.68663 
 C                     0.89409   1.73975  -4.35215 
 Fe                   -1.21222   1.85703  -4.71931 
 C                     0.2514    2.76717  -3.56729 
 Sm                   -0.02004  -0.01306   2.05383 
 H                    -0.47066  -2.5719   -0.03665 
 H                    -2.38729  -0.92423  -0.0799 
 H                    -1.93549   1.55851   0.05219 
 H                     2.39567   0.73969  -0.17567 
 H                     1.92038  -1.73089   0.00804 
 C                    -2.64893   0.98347  -3.51499 
 C                    -2.20508   0.35315  -5.68191 
 C                     0.55777   2.02675  -5.72485 
 H                    -2.68274   0.99225  -2.42827 
 C                    -3.20794   1.97665  -4.37638 
 H                    -3.72477   2.87463  -4.05819 
 C                    -2.94151   1.5808   -5.72376 
 H                    -3.21898   2.12697  -6.61868 
 H                    -1.80059  -0.17609  -6.53789 
 C                    -0.39439   3.69462  -4.43875 
 H                    -0.93649   4.57827  -4.1233 
 C                    -0.19753   3.24258  -5.77974 
 H                    -0.5768    3.7166   -6.67835 
 H                     0.82446   1.40202  -6.57021 
 N                    -1.52637   0.87051   3.70711 
 N                     1.3366   -1.10254   3.70977 
 Si                   -2.71176   0.02046   4.60015 
 C                    -0.79032   1.91724   4.21665 
 Si                    0.96309  -2.50696   4.6112 
 C                     2.05361  -0.03792   4.21124 
 Fe                    1.31254   1.9295    4.58646 
 C                    -0.44435   2.22172   5.58349 
 C                    -0.09211   2.8902    3.41056 
 C                     2.22695   0.3937    5.57615 
 C                     2.70155   0.9674    3.39989 
 H                    -0.74707   1.635     6.44376 
 C                     0.37645   3.39612   5.61009 
 H                     0.77948   3.86974   6.49859 
 C                     0.60044   3.80375   4.25901 
 H                     1.19658   4.64104   3.9153 
 H                    -0.1291    2.9617    2.32779 
 H                     1.79688  -0.10142   6.43987 
 C                     3.02392   1.584     5.59851 
 H                     3.32542   2.13061   6.48542 
 C                     3.30961   1.94517   4.24507 
 H                     3.86296   2.81517   3.91063 
 H                     2.73582   0.9502    2.31428 
 C                     0.54594   2.809     0.00611 
 C                    -0.47673   3.77601  -0.19885 
 C                     1.84144   3.32666   0.28128 
 C                    -0.22338   5.1379   -0.11006 
 H                    -1.47837   3.44033  -0.45048 
 C                     2.08156   4.68873   0.36693 
 H                     2.65847   2.63636   0.46686 
 C                     1.05547   5.62277   0.17775 
 H                    -1.04382   5.8364   -0.27144 
 H                     3.09071   5.03053   0.59499 
 H                     1.24828   6.69031   0.24931 
 H                     0.4178   -2.28595   6.01822 
 H                    -0.10276  -3.2696    3.84999 
 H                     2.12778  -3.47247   4.8171 
 H                    -3.05493  -1.23793   3.82894 
 H                    -2.31038  -0.4268    6.00278 
 H                    -4.02158   0.77203   4.82058 
 H                     2.94111  -1.54675  -3.86946 
 H                     2.24182  -0.76364  -6.07009 
 H                     4.04016   0.35462  -4.93447 
 H                    -0.46328  -2.38469  -6.07612 
 H                    -0.16387  -3.46241  -3.91387 
 H                    -2.34966  -3.4115   -5.00183 
 
 ITRead=  0  0  0  0  0  0  0  0  0  0  0  0  0  0  0  0  0  0  0  0
 ITRead=  0  0  0  0  0  0  0  0  0  0  0  0  0  0  0  0  0  0  0  0
 ITRead=  0  0  0  0  0  0  0  0  0  0  0  0  0  0  0  0  0  0  0  0
 ITRead=  0  0  0  0  0  0  0  0  0  0  0  0  0  0  0  0  0  0  0  0
 ITRead=  0  0
 MicOpt= -1 -1 -1 -1 -1 -1 -1 -1 -1 -1 -1 -1 -1 -1 -1 -1 -1 -1 -1 -1
 MicOpt= -1 -1 -1 -1 -1 -1 -1 -1 -1 -1 -1 -1 -1 -1 -1 -1 -1 -1 -1 -1
 MicOpt= -1 -1 -1 -1 -1 -1 -1 -1 -1 -1 -1 -1 -1 -1 -1 -1 -1 -1 -1 -1
 MicOpt= -1 -1 -1 -1 -1 -1 -1 -1 -1 -1 -1 -1 -1 -1 -1 -1 -1 -1 -1 -1
 MicOpt= -1 -1
 NAtoms=     82 NQM=       82 NQMF=       0 NMMI=      0 NMMIF=      0
                NMic=       0 NMicF=      0.
                    Isotopes and Nuclear Properties:
 (Nuclear quadrupole moments (NQMom) in fm**2, nuclear magnetic moments (NMagM)
  in nuclear magnetons)

  Atom         1           2           3           4           5           6           7           8           9          10
 IAtWgt=         152          14          14           1          12          12          12          12          12          12
 AtmWgt= 151.9195000  14.0030740  14.0030740   1.0078250  12.0000000  12.0000000  12.0000000  12.0000000  12.0000000  12.0000000
 NucSpn=           0           2           2           1           0           0           0           0           0           0
 AtZEff=  -0.0000000  -0.0000000  -0.0000000  -0.0000000  -0.0000000  -0.0000000  -0.0000000  -0.0000000  -0.0000000  -0.0000000
 NQMom=    0.0000000   2.0440000   2.0440000   0.0000000   0.0000000   0.0000000   0.0000000   0.0000000   0.0000000   0.0000000
 NMagM=    0.0000000   0.4037610   0.4037610   2.7928460   0.0000000   0.0000000   0.0000000   0.0000000   0.0000000   0.0000000
 AtZNuc=  62.0000000   7.0000000   7.0000000   1.0000000   6.0000000   6.0000000   6.0000000   6.0000000   6.0000000   6.0000000

  Atom        11          12          13          14          15          16          17          18          19          20
 IAtWgt=          28          12          28          12          56          12         152           1           1           1
 AtmWgt=  27.9769284  12.0000000  27.9769284  12.0000000  55.9349393  12.0000000 151.9195000   1.0078250   1.0078250   1.0078250
 NucSpn=           0           0           0           0           0           0           0           1           1           1
 AtZEff=  -0.0000000  -0.0000000  -0.0000000  -0.0000000  -0.0000000  -0.0000000  -0.0000000  -0.0000000  -0.0000000  -0.0000000
 NQMom=    0.0000000   0.0000000   0.0000000   0.0000000   0.0000000   0.0000000   0.0000000   0.0000000   0.0000000   0.0000000
 NMagM=    0.0000000   0.0000000   0.0000000   0.0000000   0.0000000   0.0000000   0.0000000   2.7928460   2.7928460   2.7928460
 AtZNuc=  14.0000000   6.0000000  14.0000000   6.0000000  26.0000000   6.0000000  62.0000000   1.0000000   1.0000000   1.0000000

  Atom        21          22          23          24          25          26          27          28          29          30
 IAtWgt=           1           1          12          12          12           1          12           1          12           1
 AtmWgt=   1.0078250   1.0078250  12.0000000  12.0000000  12.0000000   1.0078250  12.0000000   1.0078250  12.0000000   1.0078250
 NucSpn=           1           1           0           0           0           1           0           1           0           1
 AtZEff=  -0.0000000  -0.0000000  -0.0000000  -0.0000000  -0.0000000  -0.0000000  -0.0000000  -0.0000000  -0.0000000  -0.0000000
 NQMom=    0.0000000   0.0000000   0.0000000   0.0000000   0.0000000   0.0000000   0.0000000   0.0000000   0.0000000   0.0000000
 NMagM=    2.7928460   2.7928460   0.0000000   0.0000000   0.0000000   2.7928460   0.0000000   2.7928460   0.0000000   2.7928460
 AtZNuc=   1.0000000   1.0000000   6.0000000   6.0000000   6.0000000   1.0000000   6.0000000   1.0000000   6.0000000   1.0000000

  Atom        31          32          33          34          35          36          37          38          39          40
 IAtWgt=           1          12           1          12           1           1          14          14          28          12
 AtmWgt=   1.0078250  12.0000000   1.0078250  12.0000000   1.0078250   1.0078250  14.0030740  14.0030740  27.9769284  12.0000000
 NucSpn=           1           0           1           0           1           1           2           2           0           0
 AtZEff=  -0.0000000  -0.0000000  -0.0000000  -0.0000000  -0.0000000  -0.0000000  -0.0000000  -0.0000000  -0.0000000  -0.0000000
 NQMom=    0.0000000   0.0000000   0.0000000   0.0000000   0.0000000   0.0000000   2.0440000   2.0440000   0.0000000   0.0000000
 NMagM=    2.7928460   0.0000000   2.7928460   0.0000000   2.7928460   2.7928460   0.4037610   0.4037610   0.0000000   0.0000000
 AtZNuc=   1.0000000   6.0000000   1.0000000   6.0000000   1.0000000   1.0000000   7.0000000   7.0000000  14.0000000   6.0000000

  Atom        41          42          43          44          45          46          47          48          49          50
 IAtWgt=          28          12          56          12          12          12          12           1          12           1
 AtmWgt=  27.9769284  12.0000000  55.9349393  12.0000000  12.0000000  12.0000000  12.0000000   1.0078250  12.0000000   1.0078250
 NucSpn=           0           0           0           0           0           0           0           1           0           1
 AtZEff=  -0.0000000  -0.0000000  -0.0000000  -0.0000000  -0.0000000  -0.0000000  -0.0000000  -0.0000000  -0.0000000  -0.0000000
 NQMom=    0.0000000   0.0000000   0.0000000   0.0000000   0.0000000   0.0000000   0.0000000   0.0000000   0.0000000   0.0000000
 NMagM=    0.0000000   0.0000000   0.0000000   0.0000000   0.0000000   0.0000000   0.0000000   2.7928460   0.0000000   2.7928460
 AtZNuc=  14.0000000   6.0000000  26.0000000   6.0000000   6.0000000   6.0000000   6.0000000   1.0000000   6.0000000   1.0000000

  Atom        51          52          53          54          55          56          57          58          59          60
 IAtWgt=          12           1           1           1          12           1          12           1           1          12
 AtmWgt=  12.0000000   1.0078250   1.0078250   1.0078250  12.0000000   1.0078250  12.0000000   1.0078250   1.0078250  12.0000000
 NucSpn=           0           1           1           1           0           1           0           1           1           0
 AtZEff=  -0.0000000  -0.0000000  -0.0000000  -0.0000000  -0.0000000  -0.0000000  -0.0000000  -0.0000000  -0.0000000  -0.0000000
 NQMom=    0.0000000   0.0000000   0.0000000   0.0000000   0.0000000   0.0000000   0.0000000   0.0000000   0.0000000   0.0000000
 NMagM=    0.0000000   2.7928460   2.7928460   2.7928460   0.0000000   2.7928460   0.0000000   2.7928460   2.7928460   0.0000000
 AtZNuc=   6.0000000   1.0000000   1.0000000   1.0000000   6.0000000   1.0000000   6.0000000   1.0000000   1.0000000   6.0000000

  Atom        61          62          63          64          65          66          67          68          69          70
 IAtWgt=          12          12          12           1          12           1          12           1           1           1
 AtmWgt=  12.0000000  12.0000000  12.0000000   1.0078250  12.0000000   1.0078250  12.0000000   1.0078250   1.0078250   1.0078250
 NucSpn=           0           0           0           1           0           1           0           1           1           1
 AtZEff=  -0.0000000  -0.0000000  -0.0000000  -0.0000000  -0.0000000  -0.0000000  -0.0000000  -0.0000000  -0.0000000  -0.0000000
 NQMom=    0.0000000   0.0000000   0.0000000   0.0000000   0.0000000   0.0000000   0.0000000   0.0000000   0.0000000   0.0000000
 NMagM=    0.0000000   0.0000000   0.0000000   2.7928460   0.0000000   2.7928460   0.0000000   2.7928460   2.7928460   2.7928460
 AtZNuc=   6.0000000   6.0000000   6.0000000   1.0000000   6.0000000   1.0000000   6.0000000   1.0000000   1.0000000   1.0000000

  Atom        71          72          73          74          75          76          77          78          79          80
 IAtWgt=           1           1           1           1           1           1           1           1           1           1
 AtmWgt=   1.0078250   1.0078250   1.0078250   1.0078250   1.0078250   1.0078250   1.0078250   1.0078250   1.0078250   1.0078250
 NucSpn=           1           1           1           1           1           1           1           1           1           1
 AtZEff=  -0.0000000  -0.0000000  -0.0000000  -0.0000000  -0.0000000  -0.0000000  -0.0000000  -0.0000000  -0.0000000  -0.0000000
 NQMom=    0.0000000   0.0000000   0.0000000   0.0000000   0.0000000   0.0000000   0.0000000   0.0000000   0.0000000   0.0000000
 NMagM=    2.7928460   2.7928460   2.7928460   2.7928460   2.7928460   2.7928460   2.7928460   2.7928460   2.7928460   2.7928460
 AtZNuc=   1.0000000   1.0000000   1.0000000   1.0000000   1.0000000   1.0000000   1.0000000   1.0000000   1.0000000   1.0000000

  Atom        81          82
 IAtWgt=           1           1
 AtmWgt=   1.0078250   1.0078250
 NucSpn=           1           1
 AtZEff=  -0.0000000  -0.0000000
 NQMom=    0.0000000   0.0000000
 NMagM=    2.7928460   2.7928460
 AtZNuc=   1.0000000   1.0000000
 Leave Link  101 at Tue Jun 25 09:52:07 2019, MaxMem=  8053063680 cpu:               7.7 elap:               0.4
 (Enter /home/scicons/gaussian16/g16/l202.exe)
 Stoichiometry    C32H38Fe2N4Si4Sm2(2-,11)
 Framework group  C1[X(C32H38Fe2N4Si4Sm2)]
 Deg. of freedom   240
 Full point group                 C1      NOp   1
 Largest Abelian subgroup         C1      NOp   1
 Largest concise Abelian subgroup C1      NOp   1
                         Standard orientation:                         
 ---------------------------------------------------------------------
 Center     Atomic      Atomic             Coordinates (Angstroms)
 Number     Number       Type             X           Y           Z
 ---------------------------------------------------------------------
      1         62           0       -2.113961   -0.834664   -0.375573
      2          7           0       -3.964443   -2.062352    0.593475
      3          7           0       -3.521282    0.195409   -2.014968
      4          1           0       -2.340281    2.120253   -0.255150
      5          6           0       -0.088912   -2.393819   -0.033571
      6          6           0       -0.184129   -1.630683    1.197509
      7          6           0       -0.289680   -0.165057    1.151592
      8          6           0        0.050938    0.548147   -0.108109
      9          6           0        0.227734   -0.258934   -1.335117
     10          6           0        0.068015   -1.710335   -1.299933
     11         14           0       -4.855907   -3.378513   -0.039717
     12          6           0       -4.549034   -1.060764    1.337640
     13         14           0       -4.239066   -0.547167   -3.379384
     14          6           0       -4.124986    1.174949   -1.261650
     15         26           0       -4.791535    0.983807    0.764246
     16          6           0       -3.420221    2.056476   -0.361174
     17         62           0        2.041876   -0.974904    0.252466
     18          1           0       -0.145486   -3.478972   -0.004230
     19          1           0       -0.431742   -2.144330    2.123436
     20          1           0       -0.183010    0.370176    2.092559
     21          1           0        0.203193    0.235798   -2.302219
     22          1           0        0.263676   -2.284073   -2.202221
     23          6           0       -3.827322   -0.151359    2.199289
     24          6           0       -5.919659   -0.611104    1.362260
     25          6           0       -5.525594    1.466561   -1.079904
     26          1           0       -2.757091   -0.195263    2.385979
     27          6           0       -4.739566    0.780970    2.781910
     28          1           0       -4.480886    1.574362    3.473539
     29          6           0       -6.042040    0.489775    2.270174
     30          1           0       -6.956029    1.025440    2.502291
     31          1           0       -6.718827   -1.034233    0.763353
     32          6           0       -4.356416    2.911053    0.294480
     33          1           0       -4.104422    3.686544    1.008156
     34          6           0       -5.663857    2.553440   -0.157235
     35          1           0       -6.597794    3.002429    0.162466
     36          1           0       -6.336281    0.927560   -1.557713
     37          7           0        3.477213   -0.405654    2.096053
     38          7           0        3.853862   -1.914653   -1.013701
     39         14           0        4.170499   -1.465512    3.245540
     40          6           0        4.110242    0.718324    1.613358
     41         14           0        4.661610   -3.397684   -0.744200
     42          6           0        4.476513   -0.775581   -1.476084
     43         26           0        4.781649    1.036711   -0.388330
     44          6           0        5.518954    1.012362    1.514800
     45          6           0        3.434825    1.821043    0.971673
     46          6           0        5.860945   -0.382413   -1.386099
     47          6           0        3.789281    0.351593   -2.064270
     48          1           0        6.313565    0.349227    1.838523
     49          6           0        5.689277    2.296431    0.901769
     50          1           0        6.636691    2.787047    0.707138
     51          6           0        4.393958    2.792099    0.557934
     52          1           0        4.158224    3.725066    0.059363
     53          1           0        2.359911    1.933159    0.867422
     54          1           0        6.642402   -0.974797   -0.922939
     55          6           0        6.023941    0.913879   -1.973915
     56          1           0        6.956581    1.461054   -2.057996
     57          6           0        4.734262    1.373238   -2.385731
     58          1           0        4.502182    2.331538   -2.836010
     59          1           0        2.720024    0.387201   -2.252580
     60          6           0        0.158150    1.987132   -0.141805
     61          6           0       -0.172645    2.793927    0.981865
     62          6           0        0.629392    2.684799   -1.287761
     63          6           0       -0.019242    4.173375    0.961824
     64          1           0       -0.574084    2.319936    1.872625
     65          6           0        0.777776    4.062535   -1.295271
     66          1           0        0.917010    2.120496   -2.169420
     67          6           0        0.461386    4.835564   -0.171262
     68          1           0       -0.283245    4.744198    1.851507
     69          1           0        1.157119    4.544739   -2.195720
     70          1           0        0.582737    5.915899   -0.181042
     71          1           0        5.978892   -3.324452    0.020846
     72          1           0        3.737759   -4.280798    0.070486
     73          1           0        5.013991   -4.181261   -2.006314
     74          1           0        3.331214   -2.726793    3.274108
     75          1           0        5.606780   -1.906669    2.979065
     76          1           0        4.214243   -0.933968    4.675445
     77          1           0       -3.419744   -1.776746   -3.714111
     78          1           0       -5.681538   -1.014907   -3.215185
     79          1           0       -4.273451    0.315256   -4.637204
     80          1           0       -6.114559   -3.029699   -0.828038
     81          1           0       -3.955015   -4.142012   -0.988008
     82          1           0       -5.347511   -4.379438    1.004102
 ---------------------------------------------------------------------
 Rotational constants (GHZ):           0.1043927           0.0333598           0.0306507
 Leave Link  202 at Tue Jun 25 09:52:07 2019, MaxMem=  8053063680 cpu:               0.2 elap:               0.0
 (Enter /home/scicons/gaussian16/g16/l301.exe)
 General basis read from cards:  (5D, 7F)
 Centers:       5      6      7      8      9     10     12     14     16     23
 Centers:      24     25     27     29     32     34     40     42     44     45
 Centers:      46     47     49     51     55     57     60     61     62     63
 Centers:      65     67      4     18     19     20     21     22     26     28
 Centers:      30     31     33     35     36     48     50     52     53     54
 Centers:      56     58     59     64     66     68     69     70     71     72
 Centers:      73     74     75     76     77     78     79     80     81     82
 Centers:       2      3     37     38     11     13     39     41
 6-31g*
 ****
 Centers:      15     43
 SDD
 ****
 Centers:       1     17
 S 5 1.00
     Exponent=  7.0078171000D+04 Coefficients=  9.7000000000D-05
     Exponent=  1.0598384000D+04 Coefficients=  7.3000000000D-04
     Exponent=  2.4138660000D+03 Coefficients=  3.5230000000D-03
     Exponent=  6.7740310000D+02 Coefficients=  1.0873000000D-02
     Exponent=  2.0850730000D+02 Coefficients=  1.7824000000D-02
 S 1 1.00
     Exponent=  3.9366300000D+01 Coefficients=  1.0000000000D+00
 S 1 1.00
     Exponent=  2.7987500000D+01 Coefficients=  1.0000000000D+00
 S 1 1.00
     Exponent=  1.4342600000D+01 Coefficients=  1.0000000000D+00
 S 1 1.00
     Exponent=  3.6128000000D+00 Coefficients=  1.0000000000D+00
 S 1 1.00
     Exponent=  1.8452000000D+00 Coefficients=  1.0000000000D+00
 S 1 1.00
     Exponent=  6.8750000000D-01 Coefficients=  1.0000000000D+00
 S 1 1.00
     Exponent=  3.0010000000D-01 Coefficients=  1.0000000000D+00
 S 1 1.00
     Exponent=  5.3900000000D-02 Coefficients=  1.0000000000D+00
 S 1 1.00
     Exponent=  2.2400000000D-02 Coefficients=  1.0000000000D+00
 P 6 1.00
     Exponent=  3.9901950000D+03 Coefficients=  3.3000000000D-05
     Exponent=  1.1080621000D+03 Coefficients=  2.0500000000D-04
     Exponent=  3.8581320000D+02 Coefficients=  9.8300000000D-04
     Exponent=  1.3497630000D+02 Coefficients=  3.8820000000D-03
     Exponent=  2.8619900000D+01 Coefficients=  6.4056000000D-02
     Exponent=  2.0317500000D+01 Coefficients= -2.2684000000D-02
 P 1 1.00
     Exponent=  1.4389900000D+01 Coefficients=  1.0000000000D+00
 P 1 1.00
     Exponent=  5.3093000000D+00 Coefficients=  1.0000000000D+00
 P 1 1.00
     Exponent=  2.6908000000D+00 Coefficients=  1.0000000000D+00
 P 1 1.00
     Exponent=  1.2202000000D+00 Coefficients=  1.0000000000D+00
 P 1 1.00
     Exponent=  5.7260000000D-01 Coefficients=  1.0000000000D+00
 P 1 1.00
     Exponent=  2.4670000000D-01 Coefficients=  1.0000000000D+00
 P 1 1.00
     Exponent=  8.0000000000D-02 Coefficients=  1.0000000000D+00
 D 6 1.00
     Exponent=  3.9801540000D+02 Coefficients=  4.3300000000D-04
     Exponent=  1.1554660000D+02 Coefficients=  3.8520000000D-03
     Exponent=  4.1893700000D+01 Coefficients=  1.7324000000D-02
     Exponent=  2.0774300000D+01 Coefficients=  5.7430000000D-03
     Exponent=  7.5304000000D+00 Coefficients=  2.5998300000D-01
     Exponent=  4.0454000000D+00 Coefficients=  4.3147800000D-01
 D 1 1.00
     Exponent=  2.1012000000D+00 Coefficients=  1.0000000000D+00
 D 1 1.00
     Exponent=  1.0105000000D+00 Coefficients=  1.0000000000D+00
 D 1 1.00
     Exponent=  3.4750000000D-01 Coefficients=  1.0000000000D+00
 D 1 1.00
     Exponent=  1.0830000000D-01 Coefficients=  1.0000000000D+00
 F 5 1.00
     Exponent=  1.2718630000D+02 Coefficients=  3.0500000000D-03
     Exponent=  4.5939600000D+01 Coefficients=  3.1145000000D-02
     Exponent=  2.0623400000D+01 Coefficients=  1.1362400000D-01
     Exponent=  9.3855000000D+00 Coefficients=  2.4012800000D-01
     Exponent=  4.2790000000D+00 Coefficients=  3.4765200000D-01
 F 1 1.00
     Exponent=  1.8883000000D+00 Coefficients=  1.0000000000D+00
 F 1 1.00
     Exponent=  7.7480000000D-01 Coefficients=  1.0000000000D+00
 F 1 1.00
     Exponent=  2.7760000000D-01 Coefficients=  1.0000000000D+00
 G 4 1.00
     Exponent=  2.0623400000D+01 Coefficients=  1.6405000000D-02
     Exponent=  9.3855000000D+00 Coefficients=  6.7551000000D-02
     Exponent=  4.2790000000D+00 Coefficients=  1.4547200000D-01
     Exponent=  1.8883000000D+00 Coefficients=  3.5322300000D-01
 G 1 1.00
     Exponent=  7.7480000000D-01 Coefficients=  1.0000000000D+00
 G 1 1.00
     Exponent=  2.7760000000D-01 Coefficients=  1.0000000000D+00
 ****
 ======================================================================================================
                                       Pseudopotential Parameters
 ======================================================================================================
  Center     Atomic      Valence      Angular      Power
  Number     Number     Electrons     Momentum     of R      Exponent        Coefficient   SO-Coeffient
 ======================================================================================================
    1         62           34
                                      H and up 
                                                     2        1.0000000        0.00000000    0.00000000
                                      S - H
                                                     2       22.3444710      572.98533200    0.00000000
                                      P - H
                                                     2       16.6945900      272.35914500    0.00000000
                                      D - H
                                                     2       13.7277050      115.29390000    0.00000000
                                      F - H
                                                     2       24.0590920      -51.10839200    0.00000000
                                      G - H
                                                     2       20.1972490      -25.42188500    0.00000000
    2          7
                                   No pseudopotential on this center.
    3          7
                                   No pseudopotential on this center.
    4          1
                                   No pseudopotential on this center.
    5          6
                                   No pseudopotential on this center.
    6          6
                                   No pseudopotential on this center.
    7          6
                                   No pseudopotential on this center.
    8          6
                                   No pseudopotential on this center.
    9          6
                                   No pseudopotential on this center.
   10          6
                                   No pseudopotential on this center.
   11         14
                                   No pseudopotential on this center.
   12          6
                                   No pseudopotential on this center.
   13         14
                                   No pseudopotential on this center.
   14          6
                                   No pseudopotential on this center.
   15         26           16
                                      F and up 
                                                     2        1.0000000        0.00000000    0.00000000
                                      S - F
                                                     2       20.9300000      253.74958800    0.00000000
                                                     2        9.4450000       37.92284500    0.00000000
                                      P - F
                                                     2       21.7600000      161.03681200    0.00000000
                                                     2        9.1780000       27.65129800    0.00000000
                                      D - F
                                                     2       25.9000000      -24.43127600    0.00000000
                                                     2        8.8350000       -1.43425100    0.00000000
   16          6
                                   No pseudopotential on this center.
   17         62           34
                                      H and up 
                                                     2        1.0000000        0.00000000    0.00000000
                                      S - H
                                                     2       22.3444710      572.98533200    0.00000000
                                      P - H
                                                     2       16.6945900      272.35914500    0.00000000
                                      D - H
                                                     2       13.7277050      115.29390000    0.00000000
                                      F - H
                                                     2       24.0590920      -51.10839200    0.00000000
                                      G - H
                                                     2       20.1972490      -25.42188500    0.00000000
   18          1
                                   No pseudopotential on this center.
   19          1
                                   No pseudopotential on this center.
   20          1
                                   No pseudopotential on this center.
   21          1
                                   No pseudopotential on this center.
   22          1
                                   No pseudopotential on this center.
   23          6
                                   No pseudopotential on this center.
   24          6
                                   No pseudopotential on this center.
   25          6
                                   No pseudopotential on this center.
   26          1
                                   No pseudopotential on this center.
   27          6
                                   No pseudopotential on this center.
   28          1
                                   No pseudopotential on this center.
   29          6
                                   No pseudopotential on this center.
   30          1
                                   No pseudopotential on this center.
   31          1
                                   No pseudopotential on this center.
   32          6
                                   No pseudopotential on this center.
   33          1
                                   No pseudopotential on this center.
   34          6
                                   No pseudopotential on this center.
   35          1
                                   No pseudopotential on this center.
   36          1
                                   No pseudopotential on this center.
   37          7
                                   No pseudopotential on this center.
   38          7
                                   No pseudopotential on this center.
   39         14
                                   No pseudopotential on this center.
   40          6
                                   No pseudopotential on this center.
   41         14
                                   No pseudopotential on this center.
   42          6
                                   No pseudopotential on this center.
   43         26           16
                                      F and up 
                                                     2        1.0000000        0.00000000    0.00000000
                                      S - F
                                                     2       20.9300000      253.74958800    0.00000000
                                                     2        9.4450000       37.92284500    0.00000000
                                      P - F
                                                     2       21.7600000      161.03681200    0.00000000
                                                     2        9.1780000       27.65129800    0.00000000
                                      D - F
                                                     2       25.9000000      -24.43127600    0.00000000
                                                     2        8.8350000       -1.43425100    0.00000000
   44          6
                                   No pseudopotential on this center.
   45          6
                                   No pseudopotential on this center.
   46          6
                                   No pseudopotential on this center.
   47          6
                                   No pseudopotential on this center.
   48          1
                                   No pseudopotential on this center.
   49          6
                                   No pseudopotential on this center.
   50          1
                                   No pseudopotential on this center.
   51          6
                                   No pseudopotential on this center.
   52          1
                                   No pseudopotential on this center.
   53          1
                                   No pseudopotential on this center.
   54          1
                                   No pseudopotential on this center.
   55          6
                                   No pseudopotential on this center.
   56          1
                                   No pseudopotential on this center.
   57          6
                                   No pseudopotential on this center.
   58          1
                                   No pseudopotential on this center.
   59          1
                                   No pseudopotential on this center.
   60          6
                                   No pseudopotential on this center.
   61          6
                                   No pseudopotential on this center.
   62          6
                                   No pseudopotential on this center.
   63          6
                                   No pseudopotential on this center.
   64          1
                                   No pseudopotential on this center.
   65          6
                                   No pseudopotential on this center.
   66          1
                                   No pseudopotential on this center.
   67          6
                                   No pseudopotential on this center.
   68          1
                                   No pseudopotential on this center.
   69          1
                                   No pseudopotential on this center.
   70          1
                                   No pseudopotential on this center.
   71          1
                                   No pseudopotential on this center.
   72          1
                                   No pseudopotential on this center.
   73          1
                                   No pseudopotential on this center.
   74          1
                                   No pseudopotential on this center.
   75          1
                                   No pseudopotential on this center.
   76          1
                                   No pseudopotential on this center.
   77          1
                                   No pseudopotential on this center.
   78          1
                                   No pseudopotential on this center.
   79          1
                                   No pseudopotential on this center.
   80          1
                                   No pseudopotential on this center.
   81          1
                                   No pseudopotential on this center.
   82          1
                                   No pseudopotential on this center.
 ======================================================================================================
 Ernie: Thresh=  0.10000D-02 Tol=  0.10000D-05 Strict=F.
 There are  1088 symmetry adapted cartesian basis functions of A   symmetry.
 There are   966 symmetry adapted basis functions of A   symmetry.
   966 basis functions,  2084 primitive gaussians,  1088 cartesian basis functions
   213 alpha electrons      203 beta electrons
       nuclear repulsion energy      9332.1879473222 Hartrees.
 IExCor= 1009 DFT=T Ex+Corr=PBE1PBE ExCW=0 ScaHFX=  0.250000
 ScaDFX=  0.750000  0.750000  1.000000  1.000000 ScalE2=  1.000000  1.000000
 IRadAn=      5 IRanWt=     -1 IRanGd=            0 ICorTp=0 IEmpDi=131
 NAtoms=   82 NActive=   82 NUniq=   82 SFac= 1.00D+00 NAtFMM=   60 NAOKFM=T Big=T
 Integral buffers will be    131072 words long.
 Raffenetti 2 integral format.
 Two-electron integral symmetry is turned on.
 R6Disp:  Grimme-D3 Dispersion energy=       -0.0920724659 Hartrees.
 Nuclear repulsion after empirical dispersion term =     9332.0958748563 Hartrees.
 Leave Link  301 at Tue Jun 25 09:52:08 2019, MaxMem=  8053063680 cpu:               5.8 elap:               0.3
 (Enter /home/scicons/gaussian16/g16/l302.exe)
 NPDir=0 NMtPBC=     1 NCelOv=     1 NCel=       1 NClECP=     1 NCelD=      1
         NCelK=      1 NCelE2=     1 NClLst=     1 CellRange=     0.0.
 One-electron integrals computed using PRISM.
 One-electron integral symmetry used in STVInt
   1 Symmetry operations used in ECPInt.
 ECPInt:  NShTT=   54615 NPrTT=  291731 LenC2=   42872 LenP2D=  123706.
 LDataN:  DoStor=T MaxTD1= 9 Len=  602
 NBasis=   966 RedAO= T EigKep=  3.76D-04  NBF=   966
 NBsUse=   966 1.00D-06 EigRej= -1.00D+00 NBFU=   966
 Precomputing XC quadrature grid using
 IXCGrd= 4 IRadAn=           5 IRanWt=          -1 IRanGd=           0 AccXCQ= 0.00D+00.
 Defaulting to unpruned grid for atomic number  62.
 Defaulting to unpruned grid for atomic number  62.
 Generated NRdTot=       0 NPtTot=           0 NUsed=           0 NTot=          32
 NSgBfM=  1061  1061  1061  1061  1061 MxSgAt=    82 MxSgA2=    82.
 Leave Link  302 at Tue Jun 25 09:52:17 2019, MaxMem=  8053063680 cpu:             220.8 elap:               9.3
 (Enter /home/scicons/gaussian16/g16/l303.exe)
 DipDrv:  MaxL=1.
 Leave Link  303 at Tue Jun 25 09:52:18 2019, MaxMem=  8053063680 cpu:              13.7 elap:               0.7
 (Enter /home/scicons/gaussian16/g16/l401.exe)
 ExpMin= 1.00D-02 ExpMax= 7.01D+04 ExpMxC= 1.06D+04 IAcc=3 IRadAn=         5 AccDes= 0.00D+00
 Harris functional with IExCor= 1009 and IRadAn=       5 diagonalized for initial guess.
 HarFok:  IExCor= 1009 AccDes= 0.00D+00 IRadAn=         5 IDoV= 1 UseB2=F ITyADJ=14
 ICtDFT=  3500011 ScaDFX=  1.000000  1.000000  1.000000  1.000000
 Defaulting to unpruned grid for atomic number  62.
 FoFCou: FMM=F IPFlag=           0 FMFlag=      100000 FMFlg1=        2001
         NFxFlg=           0 DoJE=T BraDBF=F KetDBF=T FulRan=T
         wScrn=  0.000000 ICntrl=       500 IOpCl=  0 I1Cent=   200000004 NGrid=           0
         NMat0=    1 NMatS0=      1 NMatT0=    0 NMatD0=    1 NMtDS0=    0 NMtDT0=    0
 Petite list used in FoFCou.
 Harris En= -4183.78748798602    
 JPrj=0 DoOrth=F DoCkMO=F.
 Initial guess <Sx>= 0.0000 <Sy>= 0.0000 <Sz>= 5.0000 <S**2>=30.0000 S= 5.0000
 Leave Link  401 at Tue Jun 25 09:52:29 2019, MaxMem=  8053063680 cpu:             264.2 elap:              11.1
 (Enter /home/scicons/gaussian16/g16/l502.exe)
 Integral symmetry usage will be decided dynamically.
 UHF open shell SCF:
 Using DIIS extrapolation, IDIIS=  1040.
 NGot=  8053063680 LenX=  8050658564 LenY=  8049473732
 Requested convergence on RMS density matrix=1.00D-08 within  32 cycles.
 Requested convergence on MAX density matrix=1.00D-06.
 Requested convergence on             energy=1.00D-06.
 No special actions if energy rises.
 Fock matrices will be formed incrementally for  20 cycles.

 Cycle   1  Pass 1  IDiag  1:
 FoFJK:  IHMeth= 1 ICntrl=       0 DoSepK=F KAlg= 0 I1Cent=           0 FoldK=F
 IRaf= 960000000 NMat=       1 IRICut=       1 DoRegI=T DoRafI=F ISym2E= 0 IDoP0=0 IntGTp=1.
 FoFCou: FMM=T IPFlag=           0 FMFlag=      100000 FMFlg1=        2001
         NFxFlg=           0 DoJE=F BraDBF=F KetDBF=F FulRan=T
         wScrn=  0.000000 ICntrl=         0 IOpCl=  1 I1Cent=           0 NGrid=           0
         NMat0=    1 NMatS0=      1 NMatT0=    0 NMatD0=    1 NMtDS0=    0 NMtDT0=    0
 Symmetry not used in FoFCou.
 FMM levels:  10  Number of levels for PrismC:   9
 Defaulting to unpruned grid for atomic number  62.
 Defaulting to unpruned grid for atomic number  62.
 Defaulting to unpruned grid for atomic number  62.
 Defaulting to unpruned grid for atomic number  62.
 Defaulting to unpruned grid for atomic number  62.
 Defaulting to unpruned grid for atomic number  62.
 Defaulting to unpruned grid for atomic number  62.
 Defaulting to unpruned grid for atomic number  62.
 Defaulting to unpruned grid for atomic number  62.
 Defaulting to unpruned grid for atomic number  62.
 Defaulting to unpruned grid for atomic number  62.
 Defaulting to unpruned grid for atomic number  62.
 Defaulting to unpruned grid for atomic number  62.
 Defaulting to unpruned grid for atomic number  62.
 Defaulting to unpruned grid for atomic number  62.
 Defaulting to unpruned grid for atomic number  62.
 Defaulting to unpruned grid for atomic number  62.
 Defaulting to unpruned grid for atomic number  62.
 Defaulting to unpruned grid for atomic number  62.
 Defaulting to unpruned grid for atomic number  62.
 Defaulting to unpruned grid for atomic number  62.
 Defaulting to unpruned grid for atomic number  62.
 Defaulting to unpruned grid for atomic number  62.
 Defaulting to unpruned grid for atomic number  62.
 E= -4153.96507528528    
 DIIS: error= 1.02D-01 at cycle   1 NSaved=   1.
 NSaved= 1 IEnMin= 1 EnMin= -4153.96507528528     IErMin= 1 ErrMin= 1.02D-01
 ErrMax= 1.02D-01  0.00D+00 EMaxC= 1.00D-01 BMatC= 1.44D+02 BMatP= 1.44D+02
 IDIUse=3 WtCom= 0.00D+00 WtEn= 1.00D+00
 Coeff-Com:  0.100D+01
 Coeff-En:   0.100D+01
 Coeff:      0.100D+01
 Gap=    -1.971 Goal=   None    Shift=    0.000
 Gap=     1.565 Goal=   None    Shift=    0.000
 GapD=   -1.971 DampG=0.250 DampE=0.125 DampFc=0.1250 IDamp=-1.
 Damping current iteration by 1.25D-01
 RMSDP=3.40D-02 MaxDP=8.58D+00              OVMax= 9.73D-01

 Cycle   2  Pass 1  IDiag  1:
 RMSU=  4.25D-03    CP:  1.00D+00
 E= -4156.44001218896     Delta-E=       -2.474936903680 Rises=F Damp=T
 DIIS: error= 4.15D-02 at cycle   2 NSaved=   2.
 NSaved= 2 IEnMin= 2 EnMin= -4156.44001218896     IErMin= 2 ErrMin= 4.15D-02
 ErrMax= 4.15D-02  0.00D+00 EMaxC= 1.00D-01 BMatC= 1.48D+01 BMatP= 1.44D+02
 IDIUse=3 WtCom= 5.85D-01 WtEn= 4.15D-01
 Coeff-Com: -0.134D-01 0.101D+01
 Coeff-En:   0.458D+00 0.542D+00
 Coeff:      0.182D+00 0.818D+00
 Gap=     0.205 Goal=   None    Shift=    0.000
 Gap=    -1.043 Goal=   None    Shift=    0.000
 RMSDP=3.44D-02 MaxDP=1.01D+01 DE=-2.47D+00 OVMax= 9.99D-01

 Cycle   3  Pass 1  IDiag  1:
 RMSU=  3.42D-02    CP:  9.38D-01  3.79D-01
 E= -4017.18647843719     Delta-E=      139.253533751769 Rises=F Damp=F
 DIIS: error= 3.18D-01 at cycle   3 NSaved=   3.
 NSaved= 3 IEnMin= 2 EnMin= -4156.44001218896     IErMin= 2 ErrMin= 4.15D-02
 ErrMax= 3.18D-01  0.00D+00 EMaxC= 1.00D-01 BMatC= 1.25D+03 BMatP= 1.48D+01
 IDIUse=2 WtCom= 0.00D+00 WtEn= 1.00D+00
 EnCoef did     2 forward-backward iterations
 Coeff-En:   0.560D+00 0.268D+00 0.172D+00
 Coeff:      0.560D+00 0.268D+00 0.172D+00
 Gap=    -0.281 Goal=   None    Shift=    0.000
 Gap=    -0.385 Goal=   None    Shift=    0.000
 RMSDP=5.52D-02 MaxDP=1.09D+01 DE= 1.39D+02 OVMax= 9.86D-01

 Cycle   4  Pass 1  IDiag  1:
 RMSU=  4.17D-02    CP:  1.12D+00  3.00D+00  7.15D-03
 E= -3626.65726533366     Delta-E=      390.529213103537 Rises=F Damp=F
 DIIS: error= 3.24D-01 at cycle   4 NSaved=   4.
 NSaved= 4 IEnMin= 2 EnMin= -4156.44001218896     IErMin= 2 ErrMin= 4.15D-02
 ErrMax= 3.24D-01  0.00D+00 EMaxC= 1.00D-01 BMatC= 2.77D+03 BMatP= 1.48D+01
 IDIUse=2 WtCom= 0.00D+00 WtEn= 1.00D+00
 EnCoef did   100 forward-backward iterations
 Coeff-En:   0.741D+00 0.180D-01 0.145D+00 0.964D-01
 Coeff:      0.741D+00 0.180D-01 0.145D+00 0.964D-01
 Gap=    -0.048 Goal=   None    Shift=    0.000
 Gap=     0.297 Goal=   None    Shift=    0.000
 RMSDP=4.40D-02 MaxDP=1.16D+01 DE= 3.91D+02 OVMax= 9.80D-01

 Cycle   5  Pass 1  IDiag  1:
 RMSU=  4.95D-03    CP:  9.10D-01  3.18D-01  1.26D-02 -4.12D-03
 E= -4067.44080284145     Delta-E=     -440.783537507788 Rises=F Damp=F
 DIIS: error= 3.56D-01 at cycle   5 NSaved=   5.
 NSaved= 5 IEnMin= 2 EnMin= -4156.44001218896     IErMin= 2 ErrMin= 4.15D-02
 ErrMax= 3.56D-01  0.00D+00 EMaxC= 1.00D-01 BMatC= 1.06D+03 BMatP= 1.48D+01
 IDIUse=2 WtCom= 0.00D+00 WtEn= 1.00D+00
 EnCoef did   100 forward-backward iterations
 Coeff-En:   0.684D+00 0.811D-02 0.165D-01 0.258D-02 0.289D+00
 Coeff:      0.684D+00 0.811D-02 0.165D-01 0.258D-02 0.289D+00
 Gap=     0.035 Goal=   None    Shift=    0.000
 Gap=     0.042 Goal=   None    Shift=    0.000
 RMSDP=1.50D-02 MaxDP=4.66D+00 DE=-4.41D+02 OVMax= 9.93D-01

 Cycle   6  Pass 1  IDiag  1:
 RMSU=  1.15D-02    CP:  8.72D-01  2.28D-01  2.82D-01  5.97D-03  5.22D-01
 E= -4087.06852702707     Delta-E=      -19.627724185628 Rises=F Damp=F
 DIIS: error= 2.89D-01 at cycle   6 NSaved=   6.
 NSaved= 6 IEnMin= 2 EnMin= -4156.44001218896     IErMin= 2 ErrMin= 4.15D-02
 ErrMax= 2.89D-01  0.00D+00 EMaxC= 1.00D-01 BMatC= 5.82D+02 BMatP= 1.48D+01
 IDIUse=2 WtCom= 0.00D+00 WtEn= 1.00D+00
 EnCoef did   100 forward-backward iterations
 Coeff-En:   0.657D+00 0.297D-02 0.639D-02 0.946D-03 0.188D+00 0.145D+00
 Coeff:      0.657D+00 0.297D-02 0.639D-02 0.946D-03 0.188D+00 0.145D+00
 Gap=    -0.094 Goal=   None    Shift=    0.000
 Gap=     0.083 Goal=   None    Shift=    0.000
 RMSDP=1.27D-02 MaxDP=4.44D+00 DE=-1.96D+01 OVMax= 9.89D-01

 Cycle   7  Pass 1  IDiag  1:
 RMSU=  5.59D-03    CP:  9.09D-01  1.45D-01  7.90D-02 -5.67D-03  5.74D-01
                    CP:  2.19D-01
 E= -4116.63099789127     Delta-E=      -29.562470864195 Rises=F Damp=F
 DIIS: error= 2.29D-01 at cycle   7 NSaved=   7.
 NSaved= 7 IEnMin= 2 EnMin= -4156.44001218896     IErMin= 2 ErrMin= 4.15D-02
 ErrMax= 2.29D-01  0.00D+00 EMaxC= 1.00D-01 BMatC= 4.70D+02 BMatP= 1.48D+01
 IDIUse=2 WtCom= 0.00D+00 WtEn= 1.00D+00
 EnCoef did   100 forward-backward iterations
 Coeff-En:   0.630D+00 0.171D-02 0.367D-02 0.544D-03 0.169D+00 0.147D+00
 Coeff-En:   0.483D-01
 Coeff:      0.630D+00 0.171D-02 0.367D-02 0.544D-03 0.169D+00 0.147D+00
 Coeff:      0.483D-01
 Gap=    -0.052 Goal=   None    Shift=    0.000
 Gap=     0.080 Goal=   None    Shift=    0.000
 RMSDP=7.07D-03 MaxDP=3.58D+00 DE=-2.96D+01 OVMax= 9.64D-01

 Cycle   8  Pass 1  IDiag  1:
 RMSU=  5.68D-03    CP:  9.11D-01  1.38D-01  1.48D-01 -5.69D-03  5.37D-01
                    CP:  4.48D-01  5.98D-01
 E= -4121.49030327421     Delta-E=       -4.859305382946 Rises=F Damp=F
 DIIS: error= 2.14D-01 at cycle   8 NSaved=   8.
 NSaved= 8 IEnMin= 2 EnMin= -4156.44001218896     IErMin= 2 ErrMin= 4.15D-02
 ErrMax= 2.14D-01  0.00D+00 EMaxC= 1.00D-01 BMatC= 4.45D+02 BMatP= 1.48D+01
 IDIUse=2 WtCom= 0.00D+00 WtEn= 1.00D+00
 EnCoef did     2 forward-backward iterations
 Coeff-En:   0.291D+00 0.000D+00 0.000D+00 0.000D+00 0.000D+00 0.000D+00
 Coeff-En:   0.348D+00 0.361D+00
 Coeff:      0.291D+00 0.000D+00 0.000D+00 0.000D+00 0.000D+00 0.000D+00
 Coeff:      0.348D+00 0.361D+00
 Gap=    -0.220 Goal=   None    Shift=    0.000
 Gap=    -0.016 Goal=   None    Shift=    0.000
 RMSDP=1.01D-02 MaxDP=3.78D+00 DE=-4.86D+00 OVMax= 9.61D-01

 Cycle   9  Pass 1  IDiag  1:
 RMSU=  3.13D-03    CP:  8.96D-01  1.99D-01  9.22D-03  3.97D-03  6.88D-01
                    CP:  3.27D-02  1.90D-02 -3.98D-02
 E= -4109.77058964024     Delta-E=       11.719713633976 Rises=F Damp=F
 DIIS: error= 3.00D-01 at cycle   9 NSaved=   9.
 NSaved= 9 IEnMin= 2 EnMin= -4156.44001218896     IErMin= 2 ErrMin= 4.15D-02
 ErrMax= 3.00D-01  0.00D+00 EMaxC= 1.00D-01 BMatC= 5.55D+02 BMatP= 1.48D+01
 IDIUse=2 WtCom= 0.00D+00 WtEn= 1.00D+00
 EnCoef did    18 forward-backward iterations
 Coeff-En:   0.345D+00 0.000D+00 0.000D+00 0.000D+00 0.000D+00 0.000D+00
 Coeff-En:   0.285D+00 0.293D+00 0.776D-01
 Coeff:      0.345D+00 0.000D+00 0.000D+00 0.000D+00 0.000D+00 0.000D+00
 Coeff:      0.285D+00 0.293D+00 0.776D-01
 Gap=    -0.016 Goal=   None    Shift=    0.000
 Gap=    -0.014 Goal=   None    Shift=    0.000
 RMSDP=3.19D-03 MaxDP=5.11D-01 DE= 1.17D+01 OVMax= 9.98D-01

 Cycle  10  Pass 1  IDiag  1:
 RMSU=  2.24D-03    CP:  9.17D-01  1.14D-01  8.51D-03 -5.12D-03  5.43D-01
                    CP:  2.73D-02  7.48D-02  5.12D-04  3.51D-01
 E= -4179.59413209120     Delta-E=      -69.823542450962 Rises=F Damp=F
 DIIS: error= 4.66D-02 at cycle  10 NSaved=  10.
 NSaved=10 IEnMin=10 EnMin= -4179.59413209120     IErMin= 2 ErrMin= 4.15D-02
 ErrMax= 4.66D-02  0.00D+00 EMaxC= 1.00D-01 BMatC= 7.12D+00 BMatP= 1.48D+01
 IDIUse=3 WtCom= 5.34D-01 WtEn= 4.66D-01
 EnCoef did     7 forward-backward iterations
 Coeff-Com: -0.614D-01 0.212D+00 0.334D-01-0.806D-02-0.592D-01 0.773D-02
 Coeff-Com:  0.925D-01 0.761D-01-0.244D-01 0.732D+00
 Coeff-En:   0.000D+00 0.000D+00 0.000D+00 0.000D+00 0.000D+00 0.000D+00
 Coeff-En:   0.376D-01 0.122D-01 0.000D+00 0.950D+00
 Coeff:     -0.328D-01 0.113D+00 0.178D-01-0.430D-02-0.316D-01 0.413D-02
 Coeff:      0.669D-01 0.463D-01-0.131D-01 0.833D+00
 Gap=     0.191 Goal=   None    Shift=    0.000
 Gap=     0.279 Goal=   None    Shift=    0.000
 RMSDP=1.16D-02 MaxDP=3.57D+00 DE=-6.98D+01 OVMax= 9.99D-01

 Cycle  11  Pass 1  IDiag  1:
 RMSU=  7.95D-03    CP:  9.06D-01  1.40D-01  2.24D-01 -5.81D-03  4.17D-01
                    CP:  3.09D-01  3.05D-01  2.13D-01 -3.29D-04  5.66D-01
 E= -4163.41156216866     Delta-E=       16.182569922541 Rises=F Damp=F
 DIIS: error= 1.40D-01 at cycle  11 NSaved=  11.
 NSaved=11 IEnMin=10 EnMin= -4179.59413209120     IErMin= 2 ErrMin= 4.15D-02
 ErrMax= 1.40D-01  0.00D+00 EMaxC= 1.00D-01 BMatC= 7.13D+01 BMatP= 7.12D+00
 IDIUse=2 WtCom= 0.00D+00 WtEn= 1.00D+00
 EnCoef did     2 forward-backward iterations
 Coeff-En:   0.000D+00 0.000D+00 0.000D+00 0.000D+00 0.000D+00 0.000D+00
 Coeff-En:   0.225D-02 0.000D+00 0.000D+00 0.861D+00 0.137D+00
 Coeff:      0.000D+00 0.000D+00 0.000D+00 0.000D+00 0.000D+00 0.000D+00
 Coeff:      0.225D-02 0.000D+00 0.000D+00 0.861D+00 0.137D+00
 Gap=     0.054 Goal=   None    Shift=    0.000
 Gap=     0.044 Goal=   None    Shift=    0.000
 RMSDP=9.87D-03 MaxDP=2.61D+00 DE= 1.62D+01 OVMax= 9.96D-01

 Cycle  12  Pass 1  IDiag  1:
 RMSU=  7.45D-03    CP:  9.18D-01  9.85D-02  1.61D-01 -8.14D-03  3.63D-01
                    CP:  1.95D-01  2.50D-01 -5.25D-01 -7.51D-02  5.98D-01
                    CP:  4.73D-01
 E= -4162.88440928632     Delta-E=        0.527152882340 Rises=F Damp=F
 DIIS: error= 1.58D-01 at cycle  12 NSaved=  12.
 NSaved=12 IEnMin=10 EnMin= -4179.59413209120     IErMin= 2 ErrMin= 4.15D-02
 ErrMax= 1.58D-01  0.00D+00 EMaxC= 1.00D-01 BMatC= 5.65D+01 BMatP= 7.12D+00
 IDIUse=2 WtCom= 0.00D+00 WtEn= 1.00D+00
 EnCoef did     2 forward-backward iterations
 Coeff-En:   0.000D+00 0.000D+00 0.000D+00 0.000D+00 0.000D+00 0.000D+00
 Coeff-En:   0.000D+00 0.000D+00 0.000D+00 0.811D+00 0.131D+00 0.584D-01
 Coeff:      0.000D+00 0.000D+00 0.000D+00 0.000D+00 0.000D+00 0.000D+00
 Coeff:      0.000D+00 0.000D+00 0.000D+00 0.811D+00 0.131D+00 0.584D-01
 Gap=    -0.037 Goal=   None    Shift=    0.000
 Gap=     0.078 Goal=   None    Shift=    0.000
 RMSDP=6.83D-03 MaxDP=2.39D+00 DE= 5.27D-01 OVMax= 8.43D-01

 Cycle  13  Pass 1  IDiag  1:
 RMSU=  3.89D-03    CP:  9.13D-01  9.65D-02  1.62D-01 -8.33D-03  4.66D-01
                    CP:  2.62D-01  4.74D-01 -3.32D-01 -8.68D-02  6.91D-01
                    CP:  6.48D-01  3.17D-01
 E= -4178.90210763297     Delta-E=      -16.017698346648 Rises=F Damp=F
 DIIS: error= 4.26D-02 at cycle  13 NSaved=  13.
 NSaved=13 IEnMin=10 EnMin= -4179.59413209120     IErMin= 2 ErrMin= 4.15D-02
 ErrMax= 4.26D-02  0.00D+00 EMaxC= 1.00D-01 BMatC= 8.49D+00 BMatP= 7.12D+00
 IDIUse=2 WtCom= 0.00D+00 WtEn= 1.00D+00
 Coeff-En:   0.000D+00 0.000D+00 0.000D+00 0.000D+00 0.000D+00 0.000D+00
 Coeff-En:   0.000D+00 0.000D+00 0.000D+00 0.577D+00 0.000D+00 0.000D+00
 Coeff-En:   0.423D+00
 Coeff:      0.000D+00 0.000D+00 0.000D+00 0.000D+00 0.000D+00 0.000D+00
 Coeff:      0.000D+00 0.000D+00 0.000D+00 0.577D+00 0.000D+00 0.000D+00
 Coeff:      0.423D+00
 Gap=    -0.214 Goal=   None    Shift=    0.000
 Gap=    -0.104 Goal=   None    Shift=    0.000
 RMSDP=9.71D-03 MaxDP=3.51D+00 DE=-1.60D+01 OVMax= 9.81D-01

 Cycle  14  Pass 1  IDiag  1:
 RMSU=  2.21D-03    CP:  9.00D-01  1.54D-01  1.40D-02 -5.10D-03  5.89D-01
                    CP:  4.29D-02  7.16D-02  8.60D-03  3.57D-01  8.24D-01
                    CP:  4.37D-02 -6.54D-03 -5.87D-02
 E= -4162.01152453920     Delta-E=       16.890583093766 Rises=F Damp=F
 DIIS: error= 1.18D-01 at cycle  14 NSaved=  14.
 NSaved=14 IEnMin=10 EnMin= -4179.59413209120     IErMin= 2 ErrMin= 4.15D-02
 ErrMax= 1.18D-01  0.00D+00 EMaxC= 1.00D-01 BMatC= 1.02D+02 BMatP= 7.12D+00
 IDIUse=2 WtCom= 0.00D+00 WtEn= 1.00D+00
 EnCoef did     2 forward-backward iterations
 Coeff-En:   0.000D+00 0.000D+00 0.000D+00 0.000D+00 0.000D+00 0.000D+00
 Coeff-En:   0.000D+00 0.000D+00 0.000D+00 0.561D+00 0.000D+00 0.000D+00
 Coeff-En:   0.408D+00 0.318D-01
 Coeff:      0.000D+00 0.000D+00 0.000D+00 0.000D+00 0.000D+00 0.000D+00
 Coeff:      0.000D+00 0.000D+00 0.000D+00 0.561D+00 0.000D+00 0.000D+00
 Coeff:      0.408D+00 0.318D-01
 Gap=     0.068 Goal=   None    Shift=    0.000
 Gap=     0.203 Goal=   None    Shift=    0.000
 RMSDP=1.99D-03 MaxDP=4.54D-01 DE= 1.69D+01 OVMax= 9.91D-01

 Cycle  15  Pass 1  IDiag  1:
 RMSU=  1.17D-03    CP:  9.10D-01  1.11D-01  1.23D-02 -7.66D-03  5.57D-01
                    CP:  2.57D-02  1.17D-01 -1.86D-03  2.51D-01  9.58D-01
                    CP:  2.17D-02  1.09D-02 -9.90D-03  3.45D-01
 E= -4180.32560304374     Delta-E=      -18.314078504538 Rises=F Damp=F
 DIIS: error= 3.56D-02 at cycle  15 NSaved=  15.
 NSaved=15 IEnMin=15 EnMin= -4180.32560304374     IErMin=15 ErrMin= 3.56D-02
 ErrMax= 3.56D-02  0.00D+00 EMaxC= 1.00D-01 BMatC= 4.59D+00 BMatP= 7.12D+00
 IDIUse=3 WtCom= 6.44D-01 WtEn= 3.56D-01
 EnCoef did     2 forward-backward iterations
 Coeff-Com:  0.307D-02 0.116D-01-0.402D-02-0.978D-03-0.291D-05-0.386D-02
 Coeff-Com:  0.142D-02 0.180D-01 0.104D-02 0.407D+00 0.689D-02-0.747D-02
 Coeff-Com:  0.307D+00-0.242D-03 0.261D+00
 Coeff-En:   0.000D+00 0.000D+00 0.000D+00 0.000D+00 0.000D+00 0.000D+00
 Coeff-En:   0.000D+00 0.000D+00 0.000D+00 0.332D+00 0.000D+00 0.000D+00
 Coeff-En:   0.203D+00 0.000D+00 0.465D+00
 Coeff:      0.197D-02 0.745D-02-0.259D-02-0.630D-03-0.188D-05-0.249D-02
 Coeff:      0.913D-03 0.116D-01 0.668D-03 0.380D+00 0.444D-02-0.481D-02
 Coeff:      0.270D+00-0.156D-03 0.333D+00
 Gap=     0.092 Goal=   None    Shift=    0.000
 Gap=     0.148 Goal=   None    Shift=    0.000
 RMSDP=1.00D-03 MaxDP=1.55D-01 DE=-1.83D+01 OVMax= 3.55D-01

 Cycle  16  Pass 1  IDiag  1:
 RMSU=  8.82D-04    CP:  9.10D-01  9.55D-02  1.06D-02 -9.33D-03  5.61D-01
                    CP:  2.42D-02  1.06D-01  1.68D-02  2.25D-01  9.38D-01
                    CP:  1.96D-02  1.40D-02  1.25D-02  2.07D-01  7.41D-01
 E= -4180.68158712241     Delta-E=       -0.355984078669 Rises=F Damp=F
 DIIS: error= 3.34D-02 at cycle  16 NSaved=  16.
 NSaved=16 IEnMin=16 EnMin= -4180.68158712241     IErMin=16 ErrMin= 3.34D-02
 ErrMax= 3.34D-02  0.00D+00 EMaxC= 1.00D-01 BMatC= 2.33D+00 BMatP= 4.59D+00
 IDIUse=3 WtCom= 6.66D-01 WtEn= 3.34D-01
 Coeff-Com:  0.104D-01 0.289D-02-0.368D-02-0.200D-03-0.650D-02-0.232D-02
 Coeff-Com:  0.622D-02 0.137D-01-0.187D-02 0.203D+00 0.155D-03 0.107D-01
 Coeff-Com:  0.138D+00-0.514D-02 0.308D+00 0.327D+00
 Coeff-En:   0.000D+00 0.000D+00 0.000D+00 0.000D+00 0.000D+00 0.000D+00
 Coeff-En:   0.000D+00 0.000D+00 0.000D+00 0.000D+00 0.000D+00 0.000D+00
 Coeff-En:   0.000D+00 0.000D+00 0.346D+00 0.654D+00
 Coeff:      0.693D-02 0.192D-02-0.245D-02-0.133D-03-0.433D-02-0.155D-02
 Coeff:      0.414D-02 0.912D-02-0.124D-02 0.135D+00 0.103D-03 0.716D-02
 Coeff:      0.918D-01-0.342D-02 0.321D+00 0.436D+00
 Gap=     0.050 Goal=   None    Shift=    0.000
 Gap=     0.044 Goal=   None    Shift=    0.000
 RMSDP=6.55D-04 MaxDP=1.25D-01 DE=-3.56D-01 OVMax= 3.23D-01

 Cycle  17  Pass 1  IDiag  1:
 RMSU=  4.69D-04    CP:  9.07D-01  8.46D-02  1.25D-02 -9.16D-03  5.45D-01
                    CP:  2.97D-02  1.24D-01  2.72D-03  2.32D-01  9.86D-01
                    CP:  1.99D-02  1.22D-02 -1.36D-02  2.83D-01  8.66D-01
                    CP:  6.39D-01
 E= -4180.88682793386     Delta-E=       -0.205240811454 Rises=F Damp=F
 DIIS: error= 1.35D-02 at cycle  17 NSaved=  17.
 NSaved=17 IEnMin=17 EnMin= -4180.88682793386     IErMin=17 ErrMin= 1.35D-02
 ErrMax= 1.35D-02  0.00D+00 EMaxC= 1.00D-01 BMatC= 5.72D-01 BMatP= 2.33D+00
 IDIUse=3 WtCom= 8.65D-01 WtEn= 1.35D-01
 Coeff-Com:  0.292D-02 0.124D-01-0.139D-02-0.240D-04-0.621D-03-0.156D-02
 Coeff-Com:  0.240D-02 0.179D-02 0.236D-03 0.981D-02 0.315D-02-0.168D-02
 Coeff-Com:  0.289D-01-0.346D-02 0.633D-01 0.335D+00 0.549D+00
 Coeff-En:   0.000D+00 0.000D+00 0.000D+00 0.000D+00 0.000D+00 0.000D+00
 Coeff-En:   0.000D+00 0.000D+00 0.000D+00 0.000D+00 0.000D+00 0.000D+00
 Coeff-En:   0.000D+00 0.000D+00 0.000D+00 0.289D+00 0.711D+00
 Coeff:      0.252D-02 0.108D-01-0.120D-02-0.208D-04-0.537D-03-0.135D-02
 Coeff:      0.207D-02 0.154D-02 0.205D-03 0.849D-02 0.273D-02-0.145D-02
 Coeff:      0.250D-01-0.300D-02 0.547D-01 0.329D+00 0.570D+00
 Gap=     0.073 Goal=   None    Shift=    0.000
 Gap=     0.067 Goal=   None    Shift=    0.000
 RMSDP=3.51D-04 MaxDP=5.06D-02 DE=-2.05D-01 OVMax= 1.39D-01

 Cycle  18  Pass 1  IDiag  1:
 RMSU=  1.97D-04    CP:  9.08D-01  8.83D-02  1.17D-02 -9.09D-03  5.51D-01
                    CP:  2.64D-02  1.20D-01  8.95D-03  2.24D-01  9.50D-01
                    CP:  2.02D-02  1.41D-02 -9.75D-04  2.70D-01  8.73D-01
                    CP:  8.07D-01  5.42D-01
 E= -4180.94570302210     Delta-E=       -0.058875088234 Rises=F Damp=F
 DIIS: error= 5.42D-03 at cycle  18 NSaved=  18.
 NSaved=18 IEnMin=18 EnMin= -4180.94570302210     IErMin=18 ErrMin= 5.42D-03
 ErrMax= 5.42D-03  0.00D+00 EMaxC= 1.00D-01 BMatC= 1.22D-01 BMatP= 5.72D-01
 IDIUse=3 WtCom= 9.46D-01 WtEn= 5.42D-02
 Coeff-Com:  0.130D-02 0.716D-02-0.593D-03-0.118D-03 0.986D-03-0.695D-03
 Coeff-Com:  0.839D-03-0.842D-03 0.698D-03 0.533D-02 0.298D-02 0.333D-02
 Coeff-Com: -0.504D-02-0.444D-02-0.407D-01 0.108D+00 0.383D+00 0.538D+00
 Coeff-En:   0.000D+00 0.000D+00 0.000D+00 0.000D+00 0.000D+00 0.000D+00
 Coeff-En:   0.000D+00 0.000D+00 0.000D+00 0.000D+00 0.000D+00 0.000D+00
 Coeff-En:   0.000D+00 0.000D+00 0.000D+00 0.000D+00 0.184D+00 0.816D+00
 Coeff:      0.123D-02 0.677D-02-0.561D-03-0.112D-03 0.933D-03-0.657D-03
 Coeff:      0.793D-03-0.797D-03 0.660D-03 0.504D-02 0.282D-02 0.315D-02
 Coeff:     -0.477D-02-0.419D-02-0.385D-01 0.103D+00 0.372D+00 0.553D+00
 Gap=     0.075 Goal=   None    Shift=    0.000
 Gap=     0.065 Goal=   None    Shift=    0.000
 RMSDP=1.59D-04 MaxDP=2.69D-02 DE=-5.89D-02 OVMax= 1.05D-01

 Cycle  19  Pass 1  IDiag  1:
 RMSU=  1.17D-04    CP:  9.08D-01  8.58D-02  1.15D-02 -9.18D-03  5.49D-01
                    CP:  2.70D-02  1.18D-01  9.68D-03  2.22D-01  9.48D-01
                    CP:  1.98D-02  1.36D-02 -1.12D-03  2.65D-01  8.37D-01
                    CP:  8.71D-01  6.90D-01  8.42D-01
 E= -4180.95654183179     Delta-E=       -0.010838809687 Rises=F Damp=F
 DIIS: error= 2.69D-03 at cycle  19 NSaved=  19.
 NSaved=19 IEnMin=19 EnMin= -4180.95654183179     IErMin=19 ErrMin= 2.69D-03
 ErrMax= 2.69D-03  0.00D+00 EMaxC= 1.00D-01 BMatC= 4.47D-02 BMatP= 1.22D-01
 IDIUse=3 WtCom= 9.73D-01 WtEn= 2.69D-02
 EnCoef did     2 forward-backward iterations
 Coeff-Com:  0.674D-03 0.378D-02-0.816D-03-0.522D-04 0.391D-03 0.380D-03
 Coeff-Com:  0.156D-02-0.117D-02 0.432D-03 0.919D-02 0.248D-02 0.242D-03
 Coeff-Com:  0.217D-02-0.359D-02-0.178D-01-0.125D-01 0.146D+00 0.399D+00
 Coeff-Com:  0.470D+00
 Coeff-En:   0.000D+00 0.000D+00 0.000D+00 0.000D+00 0.000D+00 0.000D+00
 Coeff-En:   0.000D+00 0.000D+00 0.000D+00 0.000D+00 0.000D+00 0.000D+00
 Coeff-En:   0.000D+00 0.000D+00 0.000D+00 0.000D+00 0.157D-01 0.208D+00
 Coeff-En:   0.776D+00
 Coeff:      0.656D-03 0.368D-02-0.794D-03-0.508D-04 0.380D-03 0.370D-03
 Coeff:      0.152D-02-0.113D-02 0.421D-03 0.894D-02 0.241D-02 0.236D-03
 Coeff:      0.211D-02-0.350D-02-0.173D-01-0.121D-01 0.143D+00 0.394D+00
 Coeff:      0.478D+00
 Gap=     0.069 Goal=   None    Shift=    0.000
 Gap=     0.069 Goal=   None    Shift=    0.000
 RMSDP=7.20D-05 MaxDP=9.55D-03 DE=-1.08D-02 OVMax= 2.36D-02

 Cycle  20  Pass 1  IDiag  1:
 RMSU=  5.81D-05    CP:  9.08D-01  8.62D-02  1.15D-02 -9.16D-03  5.50D-01
                    CP:  2.74D-02  1.19D-01  8.32D-03  2.24D-01  9.49D-01
                    CP:  1.92D-02  1.31D-02 -2.86D-03  2.67D-01  8.39D-01
                    CP:  8.47D-01  7.14D-01  9.90D-01  9.31D-01
 E= -4180.96184652283     Delta-E=       -0.005304691049 Rises=F Damp=F
 DIIS: error= 1.49D-03 at cycle  20 NSaved=  20.
 NSaved=20 IEnMin=20 EnMin= -4180.96184652283     IErMin=20 ErrMin= 1.49D-03
 ErrMax= 1.49D-03  0.00D+00 EMaxC= 1.00D-01 BMatC= 1.57D-02 BMatP= 4.47D-02
 IDIUse=3 WtCom= 9.85D-01 WtEn= 1.49D-02
 Coeff-Com:  0.602D-03 0.181D-02-0.716D-03-0.525D-04 0.401D-03 0.215D-03
 Coeff-Com:  0.151D-02-0.882D-03 0.252D-03 0.132D-01 0.278D-02-0.194D-03
 Coeff-Com:  0.677D-02-0.369D-02 0.168D-01-0.482D-01-0.253D-01 0.109D+00
 Coeff-Com:  0.144D+00 0.781D+00
 Coeff-En:   0.000D+00 0.000D+00 0.000D+00 0.000D+00 0.000D+00 0.000D+00
 Coeff-En:   0.000D+00 0.000D+00 0.000D+00 0.000D+00 0.000D+00 0.000D+00
 Coeff-En:   0.000D+00 0.000D+00 0.000D+00 0.000D+00 0.000D+00 0.000D+00
 Coeff-En:   0.000D+00 0.100D+01
 Coeff:      0.593D-03 0.178D-02-0.705D-03-0.517D-04 0.395D-03 0.211D-03
 Coeff:      0.149D-02-0.869D-03 0.248D-03 0.131D-01 0.274D-02-0.191D-03
 Coeff:      0.667D-02-0.364D-02 0.165D-01-0.475D-01-0.249D-01 0.107D+00
 Coeff:      0.142D+00 0.785D+00
 Gap=     0.070 Goal=   None    Shift=    0.000
 Gap=     0.070 Goal=   None    Shift=    0.000
 RMSDP=5.70D-05 MaxDP=9.93D-03 DE=-5.30D-03 OVMax= 3.14D-02

 Cycle  21  Pass 1  IDiag  1:
 Restarting incremental Fock formation.
 E= -4180.96364386529     Delta-E=       -0.001797342458 Rises=F Damp=F
 DIIS: error= 1.41D-03 at cycle  21 NSaved=  20.
 NSaved=20 IEnMin=20 EnMin= -4180.96364386529     IErMin=20 ErrMin= 1.41D-03
 ErrMax= 1.41D-03  0.00D+00 EMaxC= 1.00D-01 BMatC= 1.08D-02 BMatP= 1.57D-02
 IDIUse=3 WtCom= 9.86D-01 WtEn= 1.41D-02
 Coeff-Com:  0.893D-03-0.781D-03-0.116D-03 0.203D-03-0.826D-04 0.626D-03
 Coeff-Com: -0.462D-03 0.116D-03 0.923D-02 0.786D-03-0.189D-03 0.120D-01
 Coeff-Com: -0.216D-02 0.345D-01-0.269D-01-0.891D-01-0.159D+00-0.479D+00
 Coeff-Com:  0.365D+00 0.133D+01
 Coeff-En:   0.000D+00 0.000D+00 0.000D+00 0.000D+00 0.000D+00 0.000D+00
 Coeff-En:   0.000D+00 0.000D+00 0.000D+00 0.000D+00 0.000D+00 0.000D+00
 Coeff-En:   0.000D+00 0.000D+00 0.000D+00 0.000D+00 0.000D+00 0.000D+00
 Coeff-En:   0.000D+00 0.100D+01
 Coeff:      0.880D-03-0.770D-03-0.115D-03 0.200D-03-0.815D-04 0.617D-03
 Coeff:     -0.456D-03 0.115D-03 0.910D-02 0.775D-03-0.187D-03 0.118D-01
 Coeff:     -0.213D-02 0.341D-01-0.265D-01-0.879D-01-0.157D+00-0.472D+00
 Coeff:      0.360D+00 0.133D+01
 Gap=     0.073 Goal=   None    Shift=    0.000
 Gap=     0.072 Goal=   None    Shift=    0.000
 RMSDP=9.14D-05 MaxDP=1.58D-02 DE=-1.80D-03 OVMax= 4.55D-02

 Cycle  22  Pass 1  IDiag  1:
 RMSU=  9.14D-05    CP:  1.00D+00
 E= -4180.96621481571     Delta-E=       -0.002570950413 Rises=F Damp=F
 DIIS: error= 5.51D-04 at cycle  22 NSaved=  20.
 NSaved=20 IEnMin=20 EnMin= -4180.96621481571     IErMin=20 ErrMin= 5.51D-04
 ErrMax= 5.51D-04  0.00D+00 EMaxC= 1.00D-01 BMatC= 1.85D-03 BMatP= 1.08D-02
 IDIUse=3 WtCom= 9.94D-01 WtEn= 5.51D-03
 Coeff-Com:  0.145D-03-0.163D-02-0.187D-04 0.315D-04 0.270D-03 0.137D-03
 Coeff-Com: -0.318D-04 0.135D-02-0.183D-03 0.752D-03 0.633D-02-0.481D-03
 Coeff-Com:  0.794D-02 0.558D-02 0.161D-02-0.683D-01-0.236D+00-0.265D+00
 Coeff-Com:  0.810D+00 0.738D+00
 Coeff-En:   0.000D+00 0.000D+00 0.000D+00 0.000D+00 0.000D+00 0.000D+00
 Coeff-En:   0.000D+00 0.000D+00 0.000D+00 0.000D+00 0.000D+00 0.000D+00
 Coeff-En:   0.000D+00 0.000D+00 0.000D+00 0.000D+00 0.000D+00 0.000D+00
 Coeff-En:   0.000D+00 0.100D+01
 Coeff:      0.144D-03-0.162D-02-0.186D-04 0.313D-04 0.269D-03 0.136D-03
 Coeff:     -0.316D-04 0.135D-02-0.182D-03 0.748D-03 0.629D-02-0.479D-03
 Coeff:      0.789D-02 0.555D-02 0.160D-02-0.679D-01-0.235D+00-0.263D+00
 Coeff:      0.805D+00 0.739D+00
 Gap=     0.072 Goal=   None    Shift=    0.000
 Gap=     0.071 Goal=   None    Shift=    0.000
 RMSDP=4.45D-05 MaxDP=7.34D-03 DE=-2.57D-03 OVMax= 2.69D-02

 Cycle  23  Pass 1  IDiag  1:
 RMSU=  3.77D-05    CP:  1.00D+00  1.26D+00
 E= -4180.96697199415     Delta-E=       -0.000757178444 Rises=F Damp=F
 DIIS: error= 4.93D-04 at cycle  23 NSaved=  20.
 NSaved=20 IEnMin=20 EnMin= -4180.96697199415     IErMin=20 ErrMin= 4.93D-04
 ErrMax= 4.93D-04  0.00D+00 EMaxC= 1.00D-01 BMatC= 1.67D-03 BMatP= 1.85D-03
 IDIUse=3 WtCom= 9.95D-01 WtEn= 4.93D-03
 Coeff-Com: -0.207D-03-0.176D-02 0.230D-04 0.250D-03 0.279D-03-0.660D-04
 Coeff-Com:  0.752D-03-0.254D-03 0.768D-03 0.273D-02-0.889D-04 0.829D-02
 Coeff-Com:  0.683D-04-0.934D-03-0.269D-01-0.169D-01-0.959D-01 0.266D+00
 Coeff-Com:  0.392D+00 0.471D+00
 Coeff-En:   0.000D+00 0.000D+00 0.000D+00 0.000D+00 0.000D+00 0.000D+00
 Coeff-En:   0.000D+00 0.000D+00 0.000D+00 0.000D+00 0.000D+00 0.000D+00
 Coeff-En:   0.000D+00 0.000D+00 0.000D+00 0.000D+00 0.000D+00 0.000D+00
 Coeff-En:   0.000D+00 0.100D+01
 Coeff:     -0.206D-03-0.175D-02 0.229D-04 0.248D-03 0.277D-03-0.657D-04
 Coeff:      0.748D-03-0.252D-03 0.764D-03 0.272D-02-0.885D-04 0.825D-02
 Coeff:      0.679D-04-0.930D-03-0.268D-01-0.168D-01-0.954D-01 0.265D+00
 Coeff:      0.390D+00 0.474D+00
 Gap=     0.071 Goal=   None    Shift=    0.000
 Gap=     0.071 Goal=   None    Shift=    0.000
 RMSDP=1.46D-05 MaxDP=2.14D-03 DE=-7.57D-04 OVMax= 5.48D-03

 Cycle  24  Pass 1  IDiag  1:
 RMSU=  1.43D-05    CP:  1.00D+00  1.23D+00  1.03D+00
 E= -4180.96711960089     Delta-E=       -0.000147606741 Rises=F Damp=F
 DIIS: error= 4.27D-04 at cycle  24 NSaved=  20.
 NSaved=20 IEnMin=20 EnMin= -4180.96711960089     IErMin=20 ErrMin= 4.27D-04
 ErrMax= 4.27D-04  0.00D+00 EMaxC= 1.00D-01 BMatC= 1.46D-03 BMatP= 1.67D-03
 IDIUse=3 WtCom= 9.96D-01 WtEn= 4.27D-03
 Coeff-Com: -0.222D-03-0.171D-02 0.227D-03 0.274D-03-0.392D-04 0.856D-03
 Coeff-Com: -0.226D-03 0.684D-03 0.167D-02 0.332D-04 0.131D-01-0.284D-02
 Coeff-Com: -0.174D-01-0.219D-01 0.458D-01 0.298D-01 0.659D-01 0.153D+00
 Coeff-Com:  0.182D+00 0.551D+00
 Coeff-En:   0.000D+00 0.000D+00 0.000D+00 0.000D+00 0.000D+00 0.000D+00
 Coeff-En:   0.000D+00 0.000D+00 0.000D+00 0.000D+00 0.000D+00 0.000D+00
 Coeff-En:   0.000D+00 0.000D+00 0.000D+00 0.000D+00 0.000D+00 0.000D+00
 Coeff-En:   0.000D+00 0.100D+01
 Coeff:     -0.222D-03-0.170D-02 0.226D-03 0.273D-03-0.390D-04 0.853D-03
 Coeff:     -0.225D-03 0.681D-03 0.166D-02 0.331D-04 0.131D-01-0.283D-02
 Coeff:     -0.174D-01-0.218D-01 0.456D-01 0.297D-01 0.656D-01 0.152D+00
 Coeff:      0.182D+00 0.553D+00
 Gap=     0.071 Goal=   None    Shift=    0.000
 Gap=     0.071 Goal=   None    Shift=    0.000
 RMSDP=8.85D-06 MaxDP=1.41D-03 DE=-1.48D-04 OVMax= 4.48D-03

 Cycle  25  Pass 1  IDiag  1:
 RMSU=  7.63D-06    CP:  1.00D+00  1.23D+00  1.12D+00  1.20D+00
 E= -4180.96724832875     Delta-E=       -0.000128727857 Rises=F Damp=F
 DIIS: error= 3.90D-04 at cycle  25 NSaved=  20.
 NSaved=20 IEnMin=20 EnMin= -4180.96724832875     IErMin=20 ErrMin= 3.90D-04
 ErrMax= 3.90D-04  0.00D+00 EMaxC= 1.00D-01 BMatC= 1.14D-03 BMatP= 1.46D-03
 IDIUse=3 WtCom= 9.96D-01 WtEn= 3.90D-03
 Coeff-Com: -0.154D-03-0.939D-03 0.133D-03 0.144D-03 0.639D-03-0.172D-03
 Coeff-Com:  0.550D-03 0.187D-02 0.139D-03 0.177D-01-0.364D-03-0.388D-01
 Coeff-Com: -0.240D-01 0.402D-01 0.669D-01-0.773D-01-0.714D-01-0.565D+00
 Coeff-Com: -0.194D+00 0.184D+01
 Coeff-En:   0.000D+00 0.000D+00 0.000D+00 0.000D+00 0.000D+00 0.000D+00
 Coeff-En:   0.000D+00 0.000D+00 0.000D+00 0.000D+00 0.000D+00 0.000D+00
 Coeff-En:   0.000D+00 0.000D+00 0.000D+00 0.000D+00 0.000D+00 0.000D+00
 Coeff-En:   0.000D+00 0.100D+01
 Coeff:     -0.154D-03-0.936D-03 0.132D-03 0.143D-03 0.637D-03-0.172D-03
 Coeff:      0.548D-03 0.186D-02 0.138D-03 0.176D-01-0.363D-03-0.386D-01
 Coeff:     -0.239D-01 0.401D-01 0.666D-01-0.770D-01-0.711D-01-0.563D+00
 Coeff:     -0.193D+00 0.184D+01
 Gap=     0.071 Goal=   None    Shift=    0.000
 Gap=     0.070 Goal=   None    Shift=    0.000
 RMSDP=3.04D-05 MaxDP=5.74D-03 DE=-1.29D-04 OVMax= 2.13D-02

 Cycle  26  Pass 1  IDiag  1:
 RMSU=  1.32D-05    CP:  1.00D+00  1.40D+00  1.41D+00  2.27D+00  2.59D+00
 E= -4180.96776179341     Delta-E=       -0.000513464662 Rises=F Damp=F
 DIIS: error= 3.38D-04 at cycle  26 NSaved=  20.
 NSaved=20 IEnMin=20 EnMin= -4180.96776179341     IErMin=20 ErrMin= 3.38D-04
 ErrMax= 3.38D-04  0.00D+00 EMaxC= 1.00D-01 BMatC= 7.53D-04 BMatP= 1.14D-03
 IDIUse=3 WtCom= 9.97D-01 WtEn= 3.38D-03
 Coeff-Com: -0.195D-03-0.538D-03 0.265D-04 0.146D-02 0.388D-04 0.464D-03
 Coeff-Com:  0.208D-02-0.984D-04 0.963D-02 0.989D-02-0.139D-01-0.276D-02
 Coeff-Com:  0.844D-02-0.157D+00-0.134D+00-0.923D-02-0.666D+00-0.125D+01
 Coeff-Com:  0.204D+01 0.117D+01
 Coeff-En:   0.000D+00 0.000D+00 0.000D+00 0.000D+00 0.000D+00 0.000D+00
 Coeff-En:   0.000D+00 0.000D+00 0.000D+00 0.000D+00 0.000D+00 0.000D+00
 Coeff-En:   0.000D+00 0.000D+00 0.000D+00 0.000D+00 0.000D+00 0.000D+00
 Coeff-En:   0.000D+00 0.100D+01
 Coeff:     -0.194D-03-0.536D-03 0.264D-04 0.145D-02 0.387D-04 0.462D-03
 Coeff:      0.207D-02-0.981D-04 0.960D-02 0.985D-02-0.139D-01-0.275D-02
 Coeff:      0.841D-02-0.156D+00-0.133D+00-0.920D-02-0.664D+00-0.125D+01
 Coeff:      0.203D+01 0.116D+01
 Gap=     0.072 Goal=   None    Shift=    0.000
 Gap=     0.069 Goal=   None    Shift=    0.000
 RMSDP=5.83D-05 MaxDP=1.13D-02 DE=-5.13D-04 OVMax= 4.22D-02

 Cycle  27  Pass 1  IDiag  1:
 RMSU=  2.72D-05    CP:  1.00D+00  1.82D+00  1.99D+00  3.00D+00  3.00D+00
                    CP:  2.19D+00
 E= -4180.96862498576     Delta-E=       -0.000863192350 Rises=F Damp=F
 DIIS: error= 2.65D-04 at cycle  27 NSaved=  20.
 NSaved=20 IEnMin=20 EnMin= -4180.96862498576     IErMin=20 ErrMin= 2.65D-04
 ErrMax= 2.65D-04  0.00D+00 EMaxC= 1.00D-01 BMatC= 4.75D-04 BMatP= 7.53D-04
 IDIUse=3 WtCom= 9.97D-01 WtEn= 2.65D-03
 Coeff-Com: -0.674D-05-0.499D-03 0.193D-02 0.131D-03 0.198D-03 0.116D-02
 Coeff-Com: -0.123D-03 0.196D-02 0.383D-03 0.331D-02 0.219D-01 0.436D-01
 Coeff-Com: -0.103D+00-0.149D+00-0.213D-01-0.181D+00-0.505D+00 0.696D+00
 Coeff-Com:  0.603D+00 0.588D+00
 Coeff-En:   0.000D+00 0.000D+00 0.000D+00 0.000D+00 0.000D+00 0.000D+00
 Coeff-En:   0.000D+00 0.000D+00 0.000D+00 0.000D+00 0.000D+00 0.000D+00
 Coeff-En:   0.000D+00 0.000D+00 0.000D+00 0.000D+00 0.000D+00 0.000D+00
 Coeff-En:   0.000D+00 0.100D+01
 Coeff:     -0.672D-05-0.497D-03 0.192D-02 0.130D-03 0.198D-03 0.116D-02
 Coeff:     -0.123D-03 0.196D-02 0.382D-03 0.331D-02 0.219D-01 0.435D-01
 Coeff:     -0.103D+00-0.149D+00-0.212D-01-0.181D+00-0.504D+00 0.694D+00
 Coeff:      0.601D+00 0.589D+00
 Gap=     0.072 Goal=   None    Shift=    0.000
 Gap=     0.069 Goal=   None    Shift=    0.000
 RMSDP=1.36D-05 MaxDP=2.99D-03 DE=-8.63D-04 OVMax= 1.15D-02

 Cycle  28  Pass 1  IDiag  1:
 RMSU=  8.87D-06    CP:  1.00D+00  1.87D+00  2.10D+00  3.00D+00  3.00D+00
                    CP:  2.59D+00  1.23D+00
 E= -4180.96885288247     Delta-E=       -0.000227896713 Rises=F Damp=F
 DIIS: error= 2.57D-04 at cycle  28 NSaved=  20.
 NSaved=20 IEnMin=20 EnMin= -4180.96885288247     IErMin=20 ErrMin= 2.57D-04
 ErrMax= 2.57D-04  0.00D+00 EMaxC= 1.00D-01 BMatC= 3.56D-04 BMatP= 4.75D-04
 IDIUse=3 WtCom= 9.97D-01 WtEn= 2.57D-03
 Coeff-Com: -0.535D-04 0.172D-02 0.474D-04-0.389D-04 0.101D-02-0.282D-04
 Coeff-Com: -0.360D-03-0.552D-02 0.729D-03 0.206D-01 0.517D-01 0.656D-02
 Coeff-Com: -0.147D+00-0.825D-01-0.281D-01 0.678D-01 0.224D+00 0.579D-01
 Coeff-Com:  0.111D+00 0.720D+00
 Coeff-En:   0.000D+00 0.000D+00 0.000D+00 0.000D+00 0.000D+00 0.000D+00
 Coeff-En:   0.000D+00 0.000D+00 0.000D+00 0.000D+00 0.000D+00 0.000D+00
 Coeff-En:   0.000D+00 0.000D+00 0.000D+00 0.000D+00 0.000D+00 0.000D+00
 Coeff-En:   0.000D+00 0.100D+01
 Coeff:     -0.534D-04 0.172D-02 0.472D-04-0.388D-04 0.101D-02-0.282D-04
 Coeff:     -0.359D-03-0.550D-02 0.728D-03 0.205D-01 0.516D-01 0.655D-02
 Coeff:     -0.147D+00-0.822D-01-0.281D-01 0.677D-01 0.224D+00 0.577D-01
 Coeff:      0.111D+00 0.721D+00
 Gap=     0.072 Goal=   None    Shift=    0.000
 Gap=     0.070 Goal=   None    Shift=    0.000
 RMSDP=8.44D-06 MaxDP=1.28D-03 DE=-2.28D-04 OVMax= 4.34D-03

 Cycle  29  Pass 1  IDiag  1:
 RMSU=  6.73D-06    CP:  1.00D+00  1.84D+00  2.09D+00  3.00D+00  3.00D+00
                    CP:  2.65D+00  1.32D+00  1.38D+00
 E= -4180.96894681673     Delta-E=       -0.000093934252 Rises=F Damp=F
 DIIS: error= 2.57D-04 at cycle  29 NSaved=  20.
 NSaved=20 IEnMin=20 EnMin= -4180.96894681673     IErMin=20 ErrMin= 2.57D-04
 ErrMax= 2.57D-04  0.00D+00 EMaxC= 1.00D-01 BMatC= 2.09D-04 BMatP= 3.56D-04
 IDIUse=3 WtCom= 9.97D-01 WtEn= 2.57D-03
 Coeff-Com:  0.139D-02-0.492D-06-0.111D-03 0.387D-03 0.663D-05-0.103D-02
 Coeff-Com: -0.214D-02-0.907D-02-0.437D-02 0.104D-01 0.479D-01-0.730D-01
 Coeff-Com: -0.850D-01-0.295D-01 0.264D+00 0.482D-01-0.139D+00-0.518D+00
 Coeff-Com:  0.190D+00 0.130D+01
 Coeff-En:   0.000D+00 0.000D+00 0.000D+00 0.000D+00 0.000D+00 0.000D+00
 Coeff-En:   0.000D+00 0.000D+00 0.000D+00 0.000D+00 0.000D+00 0.000D+00
 Coeff-En:   0.000D+00 0.000D+00 0.000D+00 0.000D+00 0.000D+00 0.000D+00
 Coeff-En:   0.000D+00 0.100D+01
 Coeff:      0.138D-02-0.491D-06-0.111D-03 0.386D-03 0.661D-05-0.103D-02
 Coeff:     -0.213D-02-0.904D-02-0.435D-02 0.103D-01 0.478D-01-0.728D-01
 Coeff:     -0.848D-01-0.294D-01 0.263D+00 0.480D-01-0.138D+00-0.517D+00
 Coeff:      0.190D+00 0.130D+01
 Gap=     0.072 Goal=   None    Shift=    0.000
 Gap=     0.070 Goal=   None    Shift=    0.000
 RMSDP=1.88D-05 MaxDP=4.41D-03 DE=-9.39D-05 OVMax= 1.77D-02

 Cycle  30  Pass 1  IDiag  1:
 RMSU=  6.25D-06    CP:  1.00D+00  1.90D+00  2.19D+00  3.00D+00  3.00D+00
                    CP:  3.00D+00  1.66D+00  2.50D+00  2.00D+00
 E= -4180.96926349458     Delta-E=       -0.000316677852 Rises=F Damp=F
 DIIS: error= 2.46D-04 at cycle  30 NSaved=  20.
 NSaved=20 IEnMin=20 EnMin= -4180.96926349458     IErMin=20 ErrMin= 2.46D-04
 ErrMax= 2.46D-04  0.00D+00 EMaxC= 1.00D-01 BMatC= 1.32D-04 BMatP= 2.09D-04
 IDIUse=3 WtCom= 9.98D-01 WtEn= 2.46D-03
 Coeff-Com:  0.147D-02-0.427D-05-0.951D-04-0.956D-04-0.249D-03 0.213D-03
 Coeff-Com: -0.143D-01-0.142D-01-0.727D-02 0.706D-01-0.366D-01-0.874D-01
 Coeff-Com: -0.942D-01 0.198D+00 0.803D-01-0.122D+00-0.669D+00-0.274D+00
 Coeff-Com:  0.116D+01 0.809D+00
 Coeff-En:   0.000D+00 0.000D+00 0.000D+00 0.000D+00 0.000D+00 0.000D+00
 Coeff-En:   0.000D+00 0.000D+00 0.000D+00 0.000D+00 0.000D+00 0.000D+00
 Coeff-En:   0.000D+00 0.000D+00 0.000D+00 0.000D+00 0.000D+00 0.000D+00
 Coeff-En:   0.000D+00 0.100D+01
 Coeff:      0.147D-02-0.426D-05-0.949D-04-0.954D-04-0.249D-03 0.212D-03
 Coeff:     -0.142D-01-0.142D-01-0.725D-02 0.704D-01-0.365D-01-0.872D-01
 Coeff:     -0.940D-01 0.198D+00 0.801D-01-0.122D+00-0.667D+00-0.274D+00
 Coeff:      0.116D+01 0.810D+00
 Gap=     0.072 Goal=   None    Shift=    0.000
 Gap=     0.070 Goal=   None    Shift=    0.000
[...]

 941    H 70  s      Val( 1s)     0.38755       0.28072
 942    H 70  s      Ryd( 2s)     0.00051       0.74651

 943    H 71  s      Val( 1s)     0.61267       0.04979
 944    H 71  s      Ryd( 2s)     0.00048       1.13978

 945    H 72  s      Val( 1s)     0.60153       0.05093
 946    H 72  s      Ryd( 2s)     0.00017       1.13090

 947    H 73  s      Val( 1s)     0.61376       0.04948
 948    H 73  s      Ryd( 2s)     0.00049       1.12709

 949    H 74  s      Val( 1s)     0.60138       0.05267
 950    H 74  s      Ryd( 2s)     0.00017       1.13295

 951    H 75  s      Val( 1s)     0.61345       0.05101
 952    H 75  s      Ryd( 2s)     0.00048       1.14150

 953    H 76  s      Val( 1s)     0.61340       0.05154
 954    H 76  s      Ryd( 2s)     0.00049       1.12860

 955    H 77  s      Val( 1s)     0.60112       0.05201
 956    H 77  s      Ryd( 2s)     0.00017       1.13343

 957    H 78  s      Val( 1s)     0.61263       0.05096
 958    H 78  s      Ryd( 2s)     0.00048       1.14212

 959    H 79  s      Val( 1s)     0.61287       0.05155
 960    H 79  s      Ryd( 2s)     0.00048       1.12860

 961    H 80  s      Val( 1s)     0.61289       0.05071
 962    H 80  s      Ryd( 2s)     0.00050       1.14289

 963    H 81  s      Val( 1s)     0.60127       0.05187
 964    H 81  s      Ryd( 2s)     0.00016       1.12463

 965    H 82  s      Val( 1s)     0.61392       0.04946
 966    H 82  s      Ryd( 2s)     0.00049       1.12877

 [38 electrons found in the effective core potential]

     Population inversion found on atom Sm  1
     Population inversion found on atom  N  2
     Population inversion found on atom  N  3
     Population inversion found on atom  H  4
     Population inversion found on atom  C  5
     Population inversion found on atom  C  6
     Population inversion found on atom  C  7
     Population inversion found on atom  C  8
     Population inversion found on atom  C  9
     Population inversion found on atom  C 10
     Population inversion found on atom Si 11
     Population inversion found on atom  C 12
     Population inversion found on atom Si 13
     Population inversion found on atom  C 14
     Population inversion found on atom Fe 15
     Population inversion found on atom  C 16
     Population inversion found on atom Sm 17
     Population inversion found on atom  H 18
     Population inversion found on atom  H 19
     Population inversion found on atom  H 20
     Population inversion found on atom  H 21
     Population inversion found on atom  H 22
     Population inversion found on atom  C 23
     Population inversion found on atom  C 24
     Population inversion found on atom  C 25
     Population inversion found on atom  H 26
     Population inversion found on atom  C 27
     Population inversion found on atom  H 28
     Population inversion found on atom  C 29
     Population inversion found on atom  H 30
     Population inversion found on atom  H 31
     Population inversion found on atom  C 32
     Population inversion found on atom  H 33
     Population inversion found on atom  C 34
     Population inversion found on atom  H 35
     Population inversion found on atom  H 36
     Population inversion found on atom  N 37
     Population inversion found on atom  N 38
     Population inversion found on atom Si 39
     Population inversion found on atom  C 40
     Population inversion found on atom Si 41
     Population inversion found on atom  C 42
     Population inversion found on atom Fe 43
     Population inversion found on atom  C 44
     Population inversion found on atom  C 45
     Population inversion found on atom  C 46
     Population inversion found on atom  C 47
     Population inversion found on atom  H 48
     Population inversion found on atom  C 49
     Population inversion found on atom  H 50
     Population inversion found on atom  C 51
     Population inversion found on atom  H 52
     Population inversion found on atom  H 53
     Population inversion found on atom  H 54
     Population inversion found on atom  C 55
     Population inversion found on atom  H 56
     Population inversion found on atom  C 57
     Population inversion found on atom  H 58
     Population inversion found on atom  H 59
     Population inversion found on atom  C 60
     Population inversion found on atom  C 61
     Population inversion found on atom  C 62
     Population inversion found on atom  C 63
     Population inversion found on atom  H 64
     Population inversion found on atom  C 65
     Population inversion found on atom  H 66
     Population inversion found on atom  C 67
     Population inversion found on atom  H 68
     Population inversion found on atom  H 69
     Population inversion found on atom  H 70
     Population inversion found on atom  H 71
     Population inversion found on atom  H 72
     Population inversion found on atom  H 73
     Population inversion found on atom  H 74
     Population inversion found on atom  H 75
     Population inversion found on atom  H 76
     Population inversion found on atom  H 77
     Population inversion found on atom  H 78
     Population inversion found on atom  H 79
     Population inversion found on atom  H 80
     Population inversion found on atom  H 81
     Population inversion found on atom  H 82


 Summary of Natural Population Analysis:

                                     Natural Population
             Natural    ---------------------------------------------
  Atom No    Charge        Core      Valence    Rydberg      Total
 --------------------------------------------------------------------
   Sm  1    3.41723     26.99767     0.55769    0.02742    27.58277
    N  2   -0.59941      0.99999     3.09272    0.00670     4.09941
    N  3   -0.60104      0.99999     3.09451    0.00655     4.10104
    H  4    0.13890      0.00000     0.36009    0.00101     0.36110
    C  5   -0.28086      0.99998     2.26742    0.01346     3.28086
    C  6   -0.31907      0.99998     2.30521    0.01388     3.31907
    C  7   -0.34528      0.99998     2.33288    0.01242     3.34528
    C  8   -0.18435      0.99998     2.17368    0.01069     3.18435
    C  9   -0.34538      0.99998     2.33247    0.01293     3.34538
    C 10   -0.30541      0.99998     2.29188    0.01356     3.30541
   Si 11    0.53763      4.99996     1.43811    0.02429     6.46237
    C 12    0.06975      0.99998     1.91551    0.01476     2.93025
   Si 13    0.53781      4.99996     1.43794    0.02429     6.46219
    C 14    0.07074      0.99998     1.91442    0.01486     2.92926
   Fe 15    0.15915      8.99979     3.80264    0.03841    12.84085
    C 16   -0.16917      0.99998     2.15893    0.01026     3.16917
   Sm 17    3.42008     26.99767     0.55469    0.02756    27.57992
    H 18    0.13803      0.00000     0.36165    0.00033     0.36197
    H 19    0.13959      0.00000     0.36003    0.00038     0.36041
    H 20    0.13662      0.00000     0.36284    0.00054     0.36338
    H 21    0.13789      0.00000     0.36160    0.00052     0.36211
    H 22    0.13979      0.00000     0.35981    0.00040     0.36021
    C 23   -0.17641      0.99998     2.16658    0.00984     3.17641
    C 24   -0.17336      0.99998     2.16426    0.00912     3.17336
    C 25   -0.17198      0.99998     2.16285    0.00915     3.17198
    H 26    0.13637      0.00000     0.36287    0.00076     0.36363
    C 27   -0.15878      0.99998     2.14850    0.01030     3.15878
    H 28    0.12518      0.00000     0.37423    0.00058     0.37482
    C 29   -0.16010      0.99998     2.14985    0.01026     3.16010
    H 30    0.12207      0.00000     0.37728    0.00065     0.37793
    H 31    0.12806      0.00000     0.37144    0.00050     0.37194
    C 32   -0.15526      0.99998     2.14485    0.01043     3.15526
    H 33    0.12643      0.00000     0.37293    0.00063     0.37357
    C 34   -0.15980      0.99998     2.14958    0.01023     3.15980
    H 35    0.12173      0.00000     0.37763    0.00064     0.37827
    H 36    0.12774      0.00000     0.37176    0.00050     0.37226
    N 37   -0.60284      0.99999     3.09634    0.00651     4.10284
    N 38   -0.60217      0.99999     3.09571    0.00647     4.10217
   Si 39    0.53906      4.99996     1.43676    0.02422     6.46094
    C 40    0.07061      0.99998     1.91464    0.01476     2.92939
   Si 41    0.53909      4.99996     1.43672    0.02423     6.46091
    C 42    0.06931      0.99998     1.91591    0.01479     2.93069
   Fe 43    0.15651      8.99979     3.80456    0.03913    12.84349
    C 44   -0.17328      0.99998     2.16416    0.00913     3.17328
    C 45   -0.16881      0.99998     2.15867    0.01016     3.16881
    C 46   -0.17227      0.99998     2.16317    0.00912     3.17227
    C 47   -0.17494      0.99998     2.16516    0.00980     3.17494
    H 48    0.12773      0.00000     0.37178    0.00049     0.37227
    C 49   -0.15970      0.99998     2.14955    0.01016     3.15970
    H 50    0.12159      0.00000     0.37778    0.00064     0.37841
    C 51   -0.15368      0.99998     2.14326    0.01044     3.15368
    H 52    0.12888      0.00000     0.37048    0.00064     0.37112
    H 53    0.13774      0.00000     0.36110    0.00116     0.36226
    H 54    0.12799      0.00000     0.37151    0.00050     0.37201
    C 55   -0.15978      0.99998     2.14958    0.01022     3.15978
    H 56    0.12203      0.00000     0.37732    0.00065     0.37797
    C 57   -0.15847      0.99998     2.14820    0.01029     3.15847
    H 58    0.12611      0.00000     0.37328    0.00061     0.37389
    H 59    0.13452      0.00000     0.36472    0.00076     0.36548
    C 60   -0.02435      0.99999     2.01568    0.00869     3.02435
    C 61   -0.16683      0.99999     2.15947    0.00737     3.16683
    C 62   -0.15367      0.99999     2.14643    0.00726     3.15367
    C 63   -0.11043      0.99999     2.10301    0.00743     3.11043
    H 64    0.12189      0.00000     0.37753    0.00058     0.37811
    C 65   -0.11340      0.99999     2.10598    0.00743     3.11340
    H 66    0.11875      0.00000     0.38070    0.00055     0.38125
    C 67   -0.19417      0.99999     2.18644    0.00774     3.19417
    H 68    0.11269      0.00000     0.38673    0.00058     0.38731
    H 69    0.11268      0.00000     0.38674    0.00058     0.38732
    H 70    0.11194      0.00000     0.38755    0.00051     0.38806
    H 71   -0.11315      0.00000     0.61267    0.00048     0.61315
    H 72   -0.10170      0.00000     0.60153    0.00017     0.60170
    H 73   -0.11425      0.00000     0.61376    0.00049     0.61425
    H 74   -0.10155      0.00000     0.60138    0.00017     0.60155
    H 75   -0.11393      0.00000     0.61345    0.00048     0.61393
    H 76   -0.11389      0.00000     0.61340    0.00049     0.61389
    H 77   -0.10129      0.00000     0.60112    0.00017     0.60129
    H 78   -0.11311      0.00000     0.61263    0.00048     0.61311
    H 79   -0.11336      0.00000     0.61287    0.00048     0.61336
    H 80   -0.11339      0.00000     0.61289    0.00050     0.61339
    H 81   -0.10143      0.00000     0.60127    0.00016     0.60143
    H 82   -0.11441      0.00000     0.61392    0.00049     0.61441
 ====================================================================
 * Total *  4.00000    127.99421   112.38885    0.61695   241.00000

                                 Natural Population
 ---------------------------------------------------------
   Effective Core            38.00000
   Core                      89.99421 ( 99.9936% of   90)
   Valence                  112.38885 ( 99.4592% of  113)
   Natural Minimal Basis    240.38305 ( 99.7440% of  241)
   Natural Rydberg Basis      0.61695 (  0.2560% of  241)
 ---------------------------------------------------------

    Atom No         Natural Electron Configuration
 ----------------------------------------------------------------------------
     Sm  1      [core]6s( 0.06)4f( 0.04)5d( 0.46)6p( 0.01)6d( 0.02)
      N  2      [core]2s( 0.72)2p( 2.38)
      N  3      [core]2s( 0.71)2p( 2.38)
      H  4            1s( 0.36)
      C  5      [core]2s( 0.48)2p( 1.79)3p( 0.01)
      C  6      [core]2s( 0.48)2p( 1.82)3p( 0.01)
      C  7      [core]2s( 0.48)2p( 1.85)3p( 0.01)
      C  8      [core]2s( 0.42)2p( 1.75)3p( 0.01)
      C  9      [core]2s( 0.48)2p( 1.86)3p( 0.01)
      C 10      [core]2s( 0.48)2p( 1.81)3p( 0.01)
     Si 11      [core]3s( 0.48)3p( 0.96)3d( 0.02)
      C 12      [core]2s( 0.41)2p( 1.50)3p( 0.01)
     Si 13      [core]3s( 0.48)3p( 0.96)3d( 0.02)
      C 14      [core]2s( 0.41)2p( 1.50)3p( 0.01)
     Fe 15      [core]4s( 0.10)3d( 3.71)4p( 0.01)4d( 0.02)
      C 16      [core]2s( 0.48)2p( 1.68)3p( 0.01)
     Sm 17      [core]6s( 0.05)4f( 0.04)5d( 0.46)6p( 0.01)6d( 0.02)
      H 18            1s( 0.36)
      H 19            1s( 0.36)
      H 20            1s( 0.36)
      H 21            1s( 0.36)
      H 22            1s( 0.36)
      C 23      [core]2s( 0.49)2p( 1.68)3p( 0.01)
      C 24      [core]2s( 0.48)2p( 1.68)3p( 0.01)
      C 25      [core]2s( 0.48)2p( 1.68)3p( 0.01)
      H 26            1s( 0.36)
      C 27      [core]2s( 0.48)2p( 1.66)3p( 0.01)
      H 28            1s( 0.37)
      C 29      [core]2s( 0.48)2p( 1.66)3p( 0.01)
      H 30            1s( 0.38)
      H 31            1s( 0.37)
      C 32      [core]2s( 0.48)2p( 1.66)3p( 0.01)
      H 33            1s( 0.37)
      C 34      [core]2s( 0.49)2p( 1.66)3p( 0.01)
      H 35            1s( 0.38)
      H 36            1s( 0.37)
      N 37      [core]2s( 0.71)2p( 2.38)
      N 38      [core]2s( 0.71)2p( 2.38)
     Si 39      [core]3s( 0.48)3p( 0.96)3d( 0.02)
      C 40      [core]2s( 0.41)2p( 1.50)3p( 0.01)
     Si 41      [core]3s( 0.48)3p( 0.96)3d( 0.02)
      C 42      [core]2s( 0.41)2p( 1.51)3p( 0.01)
     Fe 43      [core]4s( 0.10)3d( 3.71)4p( 0.01)4d( 0.02)
      C 44      [core]2s( 0.48)2p( 1.68)3p( 0.01)
      C 45      [core]2s( 0.48)2p( 1.68)3p( 0.01)
      C 46      [core]2s( 0.48)2p( 1.68)3p( 0.01)
      C 47      [core]2s( 0.48)2p( 1.68)3p( 0.01)
      H 48            1s( 0.37)
      C 49      [core]2s( 0.49)2p( 1.66)3p( 0.01)
      H 50            1s( 0.38)
      C 51      [core]2s( 0.48)2p( 1.66)3p( 0.01)
      H 52            1s( 0.37)
      H 53            1s( 0.36)
      H 54            1s( 0.37)
      C 55      [core]2s( 0.49)2p( 1.66)3p( 0.01)
      H 56            1s( 0.38)
      C 57      [core]2s( 0.48)2p( 1.66)3p( 0.01)
      H 58            1s( 0.37)
      H 59            1s( 0.36)
      C 60      [core]2s( 0.42)2p( 1.59)3p( 0.01)
      C 61      [core]2s( 0.47)2p( 1.69)3p( 0.01)
      C 62      [core]2s( 0.47)2p( 1.68)3p( 0.01)
      C 63      [core]2s( 0.48)2p( 1.63)3p( 0.01)
      H 64            1s( 0.38)
      C 65      [core]2s( 0.48)2p( 1.63)3p( 0.01)
      H 66            1s( 0.38)
      C 67      [core]2s( 0.48)2p( 1.71)3p( 0.01)
      H 68            1s( 0.39)
      H 69            1s( 0.39)
      H 70            1s( 0.39)
      H 71            1s( 0.61)
      H 72            1s( 0.60)
      H 73            1s( 0.61)
      H 74            1s( 0.60)
      H 75            1s( 0.61)
      H 76            1s( 0.61)
      H 77            1s( 0.60)
      H 78            1s( 0.61)
      H 79            1s( 0.61)
      H 80            1s( 0.61)
      H 81            1s( 0.60)
      H 82            1s( 0.61)

 NBO analysis completed in 173.49 CPU seconds (176 wall seconds)
 Maximum scratch memory used by NBO was 5609026 words (42.79 MB)
 Maximum scratch memory used by G16NBO was 1881532 words (14.35 MB)

 Opening RunExU unformatted file "/tmp/tmp.oLNfoc93U5/Gau-224684.EUF"
 Read unf file /tmp/tmp.oLNfoc93U5/Gau-224684.EUF:
 Label Gaussian matrix elements                                         IVers= 1 NLab= 2 Version=ES64L-G16RevB.01
 Title Sm                                                              
 NAtoms=    82 NBasis=   966 NBsUse=   966 ICharg=    -2 Multip=    11 NE=   416 Len12L=8 Len4L=8 IOpCl= 0 ICGU= -1
 GAUSSIAN SCALARS                    NI= 1 NR= 1 NTot=       1 LenBuf=    2 NRI=1 N=    1000
 NPA CHARGES                         NI= 0 NR= 1 NTot=      82 LenBuf= 2048 NRI=1 N=      82
 Recovered energy= -4180.97443701     dipole=      0.035103722640      1.521522642348      0.182289114270
 Leave Link  612 at Tue Jun 25 22:29:16 2019, MaxMem=  8053063680 cpu:            4294.3 elap:             187.3
 (Enter /home/scicons/gaussian16/g16/l9999.exe)
 1\1\GINC-CU17\SP\ROPBE1PBE\GenECP\C32H38Fe2N4Si4Sm2(2-,11)\ZHAOXK\25-J
 un-2019\0\\#P PBE1PBE/genecp EmpiricalDispersion=GD3 pop=(nbo6read) sc
 f=xqc\\Sm\\-2,11\Sm,0,0.011893,-0.061674,-2.151134\N,0,-1.392222,-1.15
 9682,-3.792291\N,0,1.5679,0.666483,-3.817823\H,0,0.314356,2.869706,-2.
 486965\C,0,-0.267395,-1.504063,-0.03211\C,0,-1.367541,-0.558203,0.0129
 14\C,0,-1.113284,0.8792,-0.161828\C,0,0.276816,1.39147,-0.032484\C,0,1
 .37809,0.404594,0.005675\C,0,1.097987,-1.026068,-0.084106\Si,0,-1.1045
 39,-2.577893,-4.705436\C,0,-2.050933,-0.065687,-4.309961\Si,0,2.683477
 ,-0.297329,-4.686625\C,0,0.894086,1.739753,-4.352155\Fe,0,-1.212218,1.
 857031,-4.719315\C,0,0.251401,2.767169,-3.56729\Sm,0,-0.020044,-0.0130
 63,2.053827\H,0,-0.470659,-2.571903,-0.036649\H,0,-2.387293,-0.924233,
 -0.079896\H,0,-1.935485,1.558505,0.052187\H,0,2.395671,0.739693,-0.175
 668\H,0,1.920377,-1.730885,0.008035\C,0,-2.648933,0.983474,-3.514987\C
 ,0,-2.205078,0.353145,-5.681905\C,0,0.557774,2.026748,-5.724853\H,0,-2
 .682743,0.992246,-2.42827\C,0,-3.207937,1.976648,-4.376377\H,0,-3.7247
 71,2.874632,-4.058187\C,0,-2.941508,1.5808,-5.723755\H,0,-3.21898,2.12
 697,-6.618684\H,0,-1.800589,-0.176085,-6.537886\C,0,-0.394388,3.694617
 ,-4.438749\H,0,-0.936487,4.57827,-4.123303\C,0,-0.197531,3.242578,-5.7
 79735\H,0,-0.576797,3.716595,-6.678347\H,0,0.824458,1.402016,-6.570209
 \N,0,-1.52637,0.870507,3.707107\N,0,1.336601,-1.102537,3.709774\Si,0,-
 2.711762,0.020456,4.600149\C,0,-0.790319,1.917236,4.216651\Si,0,0.9630
 94,-2.506957,4.611197\C,0,2.053605,-0.037917,4.21124\Fe,0,1.312537,1.9
 29504,4.58646\C,0,-0.444353,2.221718,5.583487\C,0,-0.092113,2.890204,3
 .410563\C,0,2.226952,0.393701,5.576153\C,0,2.701552,0.967395,3.399894\
 H,0,-0.747065,1.635,6.443765\C,0,0.376453,3.39612,5.610092\H,0,0.77948
 1,3.869739,6.498592\C,0,0.600443,3.803752,4.259009\H,0,1.19658,4.64104
 1,3.915297\H,0,-0.129104,2.961697,2.327789\H,0,1.796884,-0.101419,6.43
 9871\C,0,3.023922,1.583999,5.59851\H,0,3.325419,2.130607,6.485419\C,0,
 3.309613,1.945165,4.245065\H,0,3.862961,2.81517,3.910629\H,0,2.735816,
 0.950198,2.314275\C,0,0.545938,2.809,0.006107\C,0,-0.476734,3.776013,-
 0.198849\C,0,1.841442,3.326662,0.281275\C,0,-0.22338,5.137901,-0.11005
 8\H,0,-1.478368,3.440325,-0.450476\C,0,2.081556,4.688734,0.366933\H,0,
 2.658468,2.636363,0.466857\C,0,1.055468,5.622771,0.177745\H,0,-1.04382
 ,5.836404,-0.27144\H,0,3.090712,5.030532,0.594987\H,0,1.24828,6.690313
 ,0.24931\H,0,0.4178,-2.285953,6.018216\H,0,-0.102763,-3.269598,3.84999
 2\H,0,2.127781,-3.472465,4.817097\H,0,-3.054926,-1.237926,3.828941\H,0
 ,-2.310379,-0.426804,6.002783\H,0,-4.021579,0.772034,4.820583\H,0,2.94
 1112,-1.546754,-3.86946\H,0,2.241818,-0.763636,-6.070086\H,0,4.040164,
 0.354623,-4.934468\H,0,-0.463275,-2.384685,-6.076122\H,0,-0.163874,-3.
 462407,-3.913869\H,0,-2.34966,-3.411503,-5.001834\\Version=ES64L-G16Re
 vB.01\State=11-A\HF=-4180.974437\RMSD=5.211e-10\Dipole=0.0601905,1.531
 6112,-0.0060737\Quadrupole=35.8455774,29.6094992,-65.4550766,-2.829181
 3,-2.477357,-2.2645311\PG=C01 [X(C32H38Fe2N4Si4Sm2)]\\@


 SUCCESS-- IF YOU HAVE TRIED TO DO SOMETHING AND FAILED
           YOU ARE BETTER OFF THAN IF YOU HAD TRIED TO DO
           NOTHING AND SUCCEEDED.

                   -- FROM THE BACK OF A SUGAR PACKET
 Job cpu time:      12 days 12 hours 25 minutes 18.9 seconds.
 Elapsed time:       0 days 12 hours 37 minutes  8.6 seconds.
 File lengths (MBytes):  RWF=   1244 Int=      0 D2E=      0 Chk=     66 Scr=      1
 Normal termination of Gaussian 16 at Tue Jun 25 22:29:17 2019.
