 Entering Gaussian System, Link 0=g09
 Input=C30H22N2O5_rqvZNet6Xy.gjf
 Output=C30H22N2O5_rqvZNet6Xy.log
 Initial command:
 /home/sky/g09/l1.exe "/tmp/tmp_sdlqrwx/Gau-8066.inp" -scrdir="/tmp/tmp_sdlqrwx/"
 Entering Link 1 = /home/sky/g09/l1.exe PID=      8067.
  
 Copyright (c) 1988,1990,1992,1993,1995,1998,2003,2009,2013,
            Gaussian, Inc.  All Rights Reserved.
  
 This is part of the Gaussian(R) 09 program.  It is based on
 the Gaussian(R) 03 system (copyright 2003, Gaussian, Inc.),
 the Gaussian(R) 98 system (copyright 1998, Gaussian, Inc.),
 the Gaussian(R) 94 system (copyright 1995, Gaussian, Inc.),
 the Gaussian 92(TM) system (copyright 1992, Gaussian, Inc.),
 the Gaussian 90(TM) system (copyright 1990, Gaussian, Inc.),
 the Gaussian 88(TM) system (copyright 1988, Gaussian, Inc.),
 the Gaussian 86(TM) system (copyright 1986, Carnegie Mellon
 University), and the Gaussian 82(TM) system (copyright 1983,
 Carnegie Mellon University). Gaussian is a federally registered
 trademark of Gaussian, Inc.
  
 This software contains proprietary and confidential information,
 including trade secrets, belonging to Gaussian, Inc.
  
 This software is provided under written license and may be
 used, copied, transmitted, or stored only in accord with that
 written license.
  
 The following legend is applicable only to US Government
 contracts under FAR:
  
                    RESTRICTED RIGHTS LEGEND
  
 Use, reproduction and disclosure by the US Government is
 subject to restrictions as set forth in subparagraphs (a)
 and (c) of the Commercial Computer Software - Restricted
 Rights clause in FAR 52.227-19.
  
 Gaussian, Inc.
 340 Quinnipiac St., Bldg. 40, Wallingford CT 06492
  
  
 ---------------------------------------------------------------
 Warning -- This program may not be used in any manner that
 competes with the business of Gaussian, Inc. or will provide
 assistance to any competitor of Gaussian, Inc.  The licensee
 of this program is prohibited from giving any competitor of
 Gaussian, Inc. access to this program.  By using this program,
 the user acknowledges that Gaussian, Inc. is engaged in the
 business of creating and licensing software in the field of
 computational chemistry and represents and warrants to the
 licensee that it is not a competitor of Gaussian, Inc. and that
 it will not use this program in any manner prohibited above.
 ---------------------------------------------------------------
  

 Cite this work as:
 Gaussian 09, Revision D.01,
 M. J. Frisch, G. W. Trucks, H. B. Schlegel, G. E. Scuseria, 
 M. A. Robb, J. R. Cheeseman, G. Scalmani, V. Barone, B. Mennucci, 
 G. A. Petersson, H. Nakatsuji, M. Caricato, X. Li, H. P. Hratchian, 
 A. F. Izmaylov, J. Bloino, G. Zheng, J. L. Sonnenberg, M. Hada, 
 M. Ehara, K. Toyota, R. Fukuda, J. Hasegawa, M. Ishida, T. Nakajima, 
 Y. Honda, O. Kitao, H. Nakai, T. Vreven, J. A. Montgomery, Jr., 
 J. E. Peralta, F. Ogliaro, M. Bearpark, J. J. Heyd, E. Brothers, 
 K. N. Kudin, V. N. Staroverov, T. Keith, R. Kobayashi, J. Normand, 
 K. Raghavachari, A. Rendell, J. C. Burant, S. S. Iyengar, J. Tomasi, 
 M. Cossi, N. Rega, J. M. Millam, M. Klene, J. E. Knox, J. B. Cross, 
 V. Bakken, C. Adamo, J. Jaramillo, R. Gomperts, R. E. Stratmann, 
 O. Yazyev, A. J. Austin, R. Cammi, C. Pomelli, J. W. Ochterski, 
 R. L. Martin, K. Morokuma, V. G. Zakrzewski, G. A. Voth, 
 P. Salvador, J. J. Dannenberg, S. Dapprich, A. D. Daniels, 
 O. Farkas, J. B. Foresman, J. V. Ortiz, J. Cioslowski, 
 and D. J. Fox, Gaussian, Inc., Wallingford CT, 2013.
 
 ******************************************
 Gaussian 09:  ES64L-G09RevD.01 24-Apr-2013
                 3-Oct-2019 
 ******************************************
 %nproc=32
 Will use up to   32 processors via shared memory.
 %mem=12GB
 %chk=C30H22N2O5_rqvZNet6Xy.chk
 -----------------------
 #p force b3lyp 6-31g(d)
 -----------------------
 1/10=7,30=1,38=1/1,3;
 2/12=2,17=6,18=5,40=1/2;
 3/5=1,6=6,7=1,11=2,16=1,25=1,30=1,71=1,74=-5/1,2,3;
 4//1;
 5/5=2,38=5/2;
 6/7=2,8=2,9=2,10=2,28=1/1;
 7/29=1/1,2,3,16;
 1/10=7,30=1/3;
 99//99;
 Leave Link    1 at Thu Oct  3 23:44:32 2019, MaxMem=  1610612736 cpu:         0.8
 (Enter /home/sky/g09/l101.exe)
 ----------
 [No Title]
 ----------
 Symbolic Z-matrix:
 Charge =  0 Multiplicity = 1
 O                     1.88268   0.92205   2.34259 
 O                    -2.28101  -1.3821    1.20297 
 O                    -0.33446   0.33091  -2.64191 
 O                    -3.64478  -0.75754   1.81117 
 O                    -4.91953  -0.04748  -0.68821 
 N                     1.46883  -1.53176   0.62297 
 N                     0.86006   1.74028  -0.7863 
 C                     1.44854   1.41028   1.37256 
 C                     0.77187  -0.57875   0.04413 
 C                    -0.46617  -1.00052  -0.27858 
 C                    -0.59264  -2.33373   0.08752 
 C                    -2.93911  -0.86748   0.96314 
 C                     0.62185  -2.65512   0.64704 
 C                    -2.73272  -0.40598  -0.3707 
 C                    -1.5605   -0.33808  -0.90536 
 C                     2.89292   0.58508  -0.38093 
 C                     1.50545   0.75171   0.02633 
 C                     0.41563   2.78435  -0.08524 
 C                     0.78661   2.67132   1.18766 
 C                     3.79877   0.07042   0.46233 
 C                    -1.4786    0.229    -2.13963 
 C                     3.26379   0.91634  -1.6187 
 C                    -3.78045   0.03153  -1.10768 
 C                    -1.61418  -3.28452  -0.01183 
 C                     5.04136  -0.11346   0.06847 
 C                     0.84372  -3.88761   1.10162 
 C                    -1.40156  -4.50799   0.44265 
 C                     0.47562   3.64361   2.05906 
 C                    -0.18404  -4.80728   0.99337 
 C                    -3.64981   0.59092  -2.34065 
 C                     4.50548   0.73227  -2.00905 
 C                     5.39968   0.2136   -1.16836 
 C                    -0.30315   3.87945  -0.50134 
 C                    -2.5089    0.70172  -2.84229 
 C                    -2.43806  -1.81975   2.49373 
 C                    -0.61202   4.83749   0.37644 
 C                    -0.22526   4.73714   1.64712 
 H                    -0.4246    0.58729  -3.5368 
 H                    -4.86544  -0.51251   0.16423 
 H                     2.41922  -1.46391   0.91103 
 H                     0.32807   1.38977  -1.5048 
 H                     3.53302  -0.15348   1.4341 
 H                     2.57807   1.33421  -2.27334 
 H                    -2.55411  -3.06384  -0.4372 
 H                     5.73071  -0.50448   0.73759 
 H                     1.78278  -4.11657   1.52443 
 H                    -2.18418  -5.25043   0.37287 
 H                     0.778     3.52433   3.03481 
 H                    -0.04717  -5.77388   1.33902 
 H                    -4.46072   0.92969  -2.8799 
 H                     4.77372   0.99791  -2.97359 
 H                     6.36706   0.0721   -1.4727 
 H                    -0.60625   3.97911  -1.47809 
 H                    -2.41312   1.14054  -3.79954 
 H                    -1.78611  -2.12609   2.49955 
 H                    -3.03994  -2.32085   2.75034 
 H                    -2.5743   -1.33311   3.14521 
 H                    -1.16849   5.69268   0.06843 
 H                    -0.48215   5.51116   2.29824 
 
 NAtoms=     59 NQM=       59 NQMF=       0 NMMI=      0 NMMIF=      0
                NMic=       0 NMicF=      0.
                    Isotopes and Nuclear Properties:
 (Nuclear quadrupole moments (NQMom) in fm**2, nuclear magnetic moments (NMagM)
  in nuclear magnetons)

  Atom         1           2           3           4           5           6           7           8           9          10
 IAtWgt=          16          16          16          16          16          14          14          12          12          12
 AtmWgt=  15.9949146  15.9949146  15.9949146  15.9949146  15.9949146  14.0030740  14.0030740  12.0000000  12.0000000  12.0000000
 NucSpn=           0           0           0           0           0           2           2           0           0           0
 AtZEff=   0.0000000   0.0000000   0.0000000   0.0000000   0.0000000   0.0000000   0.0000000   0.0000000   0.0000000   0.0000000
 NQMom=    0.0000000   0.0000000   0.0000000   0.0000000   0.0000000   2.0440000   2.0440000   0.0000000   0.0000000   0.0000000
 NMagM=    0.0000000   0.0000000   0.0000000   0.0000000   0.0000000   0.4037610   0.4037610   0.0000000   0.0000000   0.0000000
 AtZNuc=   8.0000000   8.0000000   8.0000000   8.0000000   8.0000000   7.0000000   7.0000000   6.0000000   6.0000000   6.0000000

  Atom        11          12          13          14          15          16          17          18          19          20
 IAtWgt=          12          12          12          12          12          12          12          12          12          12
 AtmWgt=  12.0000000  12.0000000  12.0000000  12.0000000  12.0000000  12.0000000  12.0000000  12.0000000  12.0000000  12.0000000
 NucSpn=           0           0           0           0           0           0           0           0           0           0
 AtZEff=   0.0000000   0.0000000   0.0000000   0.0000000   0.0000000   0.0000000   0.0000000   0.0000000   0.0000000   0.0000000
 NQMom=    0.0000000   0.0000000   0.0000000   0.0000000   0.0000000   0.0000000   0.0000000   0.0000000   0.0000000   0.0000000
 NMagM=    0.0000000   0.0000000   0.0000000   0.0000000   0.0000000   0.0000000   0.0000000   0.0000000   0.0000000   0.0000000
 AtZNuc=   6.0000000   6.0000000   6.0000000   6.0000000   6.0000000   6.0000000   6.0000000   6.0000000   6.0000000   6.0000000

  Atom        21          22          23          24          25          26          27          28          29          30
 IAtWgt=          12          12          12          12          12          12          12          12          12          12
 AtmWgt=  12.0000000  12.0000000  12.0000000  12.0000000  12.0000000  12.0000000  12.0000000  12.0000000  12.0000000  12.0000000
 NucSpn=           0           0           0           0           0           0           0           0           0           0
 AtZEff=   0.0000000   0.0000000   0.0000000   0.0000000   0.0000000   0.0000000   0.0000000   0.0000000   0.0000000   0.0000000
 NQMom=    0.0000000   0.0000000   0.0000000   0.0000000   0.0000000   0.0000000   0.0000000   0.0000000   0.0000000   0.0000000
 NMagM=    0.0000000   0.0000000   0.0000000   0.0000000   0.0000000   0.0000000   0.0000000   0.0000000   0.0000000   0.0000000
 AtZNuc=   6.0000000   6.0000000   6.0000000   6.0000000   6.0000000   6.0000000   6.0000000   6.0000000   6.0000000   6.0000000

  Atom        31          32          33          34          35          36          37          38          39          40
 IAtWgt=          12          12          12          12          12          12          12           1           1           1
 AtmWgt=  12.0000000  12.0000000  12.0000000  12.0000000  12.0000000  12.0000000  12.0000000   1.0078250   1.0078250   1.0078250
 NucSpn=           0           0           0           0           0           0           0           1           1           1
 AtZEff=   0.0000000   0.0000000   0.0000000   0.0000000   0.0000000   0.0000000   0.0000000   0.0000000   0.0000000   0.0000000
 NQMom=    0.0000000   0.0000000   0.0000000   0.0000000   0.0000000   0.0000000   0.0000000   0.0000000   0.0000000   0.0000000
 NMagM=    0.0000000   0.0000000   0.0000000   0.0000000   0.0000000   0.0000000   0.0000000   2.7928460   2.7928460   2.7928460
 AtZNuc=   6.0000000   6.0000000   6.0000000   6.0000000   6.0000000   6.0000000   6.0000000   1.0000000   1.0000000   1.0000000

  Atom        41          42          43          44          45          46          47          48          49          50
 IAtWgt=           1           1           1           1           1           1           1           1           1           1
 AtmWgt=   1.0078250   1.0078250   1.0078250   1.0078250   1.0078250   1.0078250   1.0078250   1.0078250   1.0078250   1.0078250
 NucSpn=           1           1           1           1           1           1           1           1           1           1
 AtZEff=   0.0000000   0.0000000   0.0000000   0.0000000   0.0000000   0.0000000   0.0000000   0.0000000   0.0000000   0.0000000
 NQMom=    0.0000000   0.0000000   0.0000000   0.0000000   0.0000000   0.0000000   0.0000000   0.0000000   0.0000000   0.0000000
 NMagM=    2.7928460   2.7928460   2.7928460   2.7928460   2.7928460   2.7928460   2.7928460   2.7928460   2.7928460   2.7928460
 AtZNuc=   1.0000000   1.0000000   1.0000000   1.0000000   1.0000000   1.0000000   1.0000000   1.0000000   1.0000000   1.0000000

  Atom        51          52          53          54          55          56          57          58          59
 IAtWgt=           1           1           1           1           1           1           1           1           1
 AtmWgt=   1.0078250   1.0078250   1.0078250   1.0078250   1.0078250   1.0078250   1.0078250   1.0078250   1.0078250
 NucSpn=           1           1           1           1           1           1           1           1           1
 AtZEff=   0.0000000   0.0000000   0.0000000   0.0000000   0.0000000   0.0000000   0.0000000   0.0000000   0.0000000
 NQMom=    0.0000000   0.0000000   0.0000000   0.0000000   0.0000000   0.0000000   0.0000000   0.0000000   0.0000000
 NMagM=    2.7928460   2.7928460   2.7928460   2.7928460   2.7928460   2.7928460   2.7928460   2.7928460   2.7928460
 AtZNuc=   1.0000000   1.0000000   1.0000000   1.0000000   1.0000000   1.0000000   1.0000000   1.0000000   1.0000000
 Leave Link  101 at Thu Oct  3 23:44:32 2019, MaxMem=  1610612736 cpu:         3.0
 (Enter /home/sky/g09/l103.exe)

 GradGradGradGradGradGradGradGradGradGradGradGradGradGradGradGradGradGrad
 Berny optimization.
 Initialization pass.
 Trust Radius=3.00D-01 FncErr=1.00D-07 GrdErr=1.00D-07
 Number of steps in this run=      2 maximum allowed number of steps=      2.
 GradGradGradGradGradGradGradGradGradGradGradGradGradGradGradGradGradGrad

 Leave Link  103 at Thu Oct  3 23:44:32 2019, MaxMem=  1610612736 cpu:         0.6
 (Enter /home/sky/g09/l202.exe)
 Stoichiometry    C30H22N2O5
 Framework group  C1[X(C30H22N2O5)]
 Deg. of freedom   171
 Full point group                 C1      NOp   1
 Largest Abelian subgroup         C1      NOp   1
 Largest concise Abelian subgroup C1      NOp   1
                         Standard orientation:                         
 ---------------------------------------------------------------------
 Center     Atomic      Atomic             Coordinates (Angstroms)
 Number     Number       Type             X           Y           Z
 ---------------------------------------------------------------------
      1          8           0       -2.078990   -0.358835   -2.384490
      2          8           0        2.628688   -0.373441   -1.049679
      3          8           0       -0.032788    0.669406    2.602112
      4          8           0        3.582559    0.734003   -1.745066
      5          8           0        4.296425    2.213094    0.637947
      6          7           0       -0.663396   -2.151821   -0.401858
      7          7           0       -1.663354    1.169117    0.615148
      8          6           0       -1.952472    0.375473   -1.483042
      9          6           0       -0.498768   -0.929489    0.054041
     10          6           0        0.782018   -0.702921    0.404794
     11          6           0        1.514607   -1.862821    0.191687
     12          6           0        2.971191    0.407141   -0.879852
     13          6           0        0.601690   -2.760891   -0.309690
     14          6           0        2.525516    0.865321    0.395356
     15          6           0        1.430428    0.448988    0.935758
     16          6           0       -2.931866   -0.821885    0.374106
     17          6           0       -1.756757   -0.086448   -0.069672
     18          6           0       -1.714624    2.218134   -0.207060
     19          6           0       -1.943498    1.811298   -1.453158
     20          6           0       -3.471169   -1.780783   -0.391514
     21          6           0        1.051484    1.046398    2.098177
     22          6           0       -3.461000   -0.564136    1.571165
     23          6           0        3.230309    1.809202    1.062171
     24          6           0        2.851807   -2.226500    0.384193
     25          6           0       -4.508983   -2.466877    0.038825
     26          6           0        0.981975   -4.000150   -0.617125
     27          6           0        3.236219   -3.453560    0.075687
     28          6           0       -2.074237    2.717628   -2.434423
     29          6           0        2.310216   -4.332537   -0.419434
     30          6           0        2.811539    2.377460    2.224883
     31          6           0       -4.497780   -1.250373    1.998029
     32          6           0       -5.024996   -2.207225    1.235246
     33          6           0       -1.588740    3.558320    0.070638
     34          6           0        1.726116    2.009725    2.727128
     35          6           0        3.017929   -0.828369   -2.284105
     36          6           0       -1.714644    4.450402   -0.915306
     37          6           0       -1.963403    4.047811   -2.160418
     38          1           0       -0.104145    1.033952    3.460420
     39          1           0        4.492996    1.685230   -0.154872
     40          1           0       -1.528756   -2.556225   -0.681926
     41          1           0       -1.058843    1.179754    1.361181
     42          1           0       -3.094813   -1.962761   -1.335087
     43          1           0       -3.066234    0.188494    2.163698
     44          1           0        3.571395   -1.557069    0.767824
     45          1           0       -4.918598   -3.199007   -0.571111
     46          1           0        0.266828   -4.676223   -0.997285
     47          1           0        4.267297   -3.745262    0.218474
     48          1           0       -2.250875    2.368714   -3.385636
     49          1           0        2.641092   -5.286342   -0.650304
     50          1           0        3.358174    3.104763    2.710016
     51          1           0       -4.895032   -1.033427    2.929683
     52          1           0       -5.833610   -2.740158    1.567809
     53          1           0       -1.402584    3.890322    1.025075
     54          1           0        1.403961    2.457480    3.629232
     55          1           0        2.577091   -1.396772   -2.245372
     56          1           0        3.791307   -1.024573   -2.490485
     57          1           0        2.943661   -0.406916   -2.988851
     58          1           0       -1.619982    5.492931   -0.715200
     59          1           0       -2.060866    4.778177   -2.899419
 ---------------------------------------------------------------------
 Rotational constants (GHZ):      0.1536568      0.1159641      0.0887639
 Leave Link  202 at Thu Oct  3 23:44:32 2019, MaxMem=  1610612736 cpu:         0.2
 (Enter /home/sky/g09/l301.exe)
 Standard basis: 6-31G(d) (6D, 7F)
 Ernie: Thresh=  0.10000D-02 Tol=  0.10000D-05 Strict=F.
 There are   599 symmetry adapted cartesian basis functions of A   symmetry.
 There are   599 symmetry adapted basis functions of A   symmetry.
   599 basis functions,  1124 primitive gaussians,   599 cartesian basis functions
   128 alpha electrons      128 beta electrons
       nuclear repulsion energy      4321.1109357406 Hartrees.
 IExCor=  402 DFT=T Ex+Corr=B3LYP ExCW=0 ScaHFX=  0.200000
 ScaDFX=  0.800000  0.720000  1.000000  0.810000 ScalE2=  1.000000  1.000000
 IRadAn=      0 IRanWt=     -1 IRanGd=            0 ICorTp=0 IEmpDi=  4
 NAtoms=   59 NActive=   59 NUniq=   59 SFac= 1.00D+00 NAtFMM=   60 NAOKFM=F Big=F
 Integral buffers will be    131072 words long.
 Raffenetti 2 integral format.
 Two-electron integral symmetry is turned on.
 Leave Link  301 at Thu Oct  3 23:44:32 2019, MaxMem=  1610612736 cpu:         1.2
 (Enter /home/sky/g09/l302.exe)
 NPDir=0 NMtPBC=     1 NCelOv=     1 NCel=       1 NClECP=     1 NCelD=      1
         NCelK=      1 NCelE2=     1 NClLst=     1 CellRange=     0.0.
 One-electron integrals computed using PRISM.
 NBasis=   599 RedAO= T EigKep=  1.49D-04  NBF=   599
 NBsUse=   599 1.00D-06 EigRej= -1.00D+00 NBFU=   599
 Precomputing XC quadrature grid using
 IXCGrd= 4 IRadAn=           0 IRanWt=          -1 IRanGd=           0 AccXCQ= 0.00D+00.
 Generated NRdTot=       0 NPtTot=           0 NUsed=           0 NTot=          32
 NSgBfM=   592   592   592   592   592 MxSgAt=    59 MxSgA2=    59.
 Leave Link  302 at Thu Oct  3 23:44:33 2019, MaxMem=  1610612736 cpu:        27.2
 (Enter /home/sky/g09/l303.exe)
 DipDrv:  MaxL=1.
 Leave Link  303 at Thu Oct  3 23:44:33 2019, MaxMem=  1610612736 cpu:         2.6
 (Enter /home/sky/g09/l401.exe)
 ExpMin= 1.61D-01 ExpMax= 5.48D+03 ExpMxC= 8.25D+02 IAcc=1 IRadAn=         1 AccDes= 0.00D+00
 Harris functional with IExCor=  402 and IRadAn=       1 diagonalized for initial guess.
 HarFok:  IExCor=  402 AccDes= 0.00D+00 IRadAn=         1 IDoV= 1 UseB2=F ITyADJ=14
 ICtDFT=  3500011 ScaDFX=  1.000000  1.000000  1.000000  1.000000
 FoFCou: FMM=F IPFlag=           0 FMFlag=      100000 FMFlg1=           0
         NFxFlg=           0 DoJE=T BraDBF=F KetDBF=T FulRan=T
         wScrn=  0.000000 ICntrl=     500 IOpCl=  0 I1Cent=   200000004 NGrid=           0
         NMat0=    1 NMatS0=      1 NMatT0=    0 NMatD0=    1 NMtDS0=    0 NMtDT0=    0
 Petite list used in FoFCou.
 Harris En= -1641.05201055074    
 JPrj=0 DoOrth=F DoCkMO=F.
 Leave Link  401 at Thu Oct  3 23:44:34 2019, MaxMem=  1610612736 cpu:        32.9
 (Enter /home/sky/g09/l502.exe)
 Closed shell SCF:
 Using DIIS extrapolation, IDIIS=  1040.
 Integral symmetry usage will be decided dynamically.
 IVT=     1118624 IEndB=     1118624 NGot=  1610612736 MDV=  1609870153
 LenX=  1609870153 LenY=  1609510753
 Requested convergence on RMS density matrix=1.00D-08 within 128 cycles.
 Requested convergence on MAX density matrix=1.00D-06.
 Requested convergence on             energy=1.00D-06.
 No special actions if energy rises.
 Fock matrices will be formed incrementally for  20 cycles.
 Integral accuracy reduced to 1.0D-05 until final iterations.

 Cycle   1  Pass 0  IDiag  1:
 FoFJK:  IHMeth= 1 ICntrl=       0 DoSepK=F KAlg= 0 I1Cent=   0 FoldK=F
 IRaf= 680000000 NMat=   1 IRICut=       1 DoRegI=T DoRafI=F ISym2E= 0.
 FoFCou: FMM=F IPFlag=           0 FMFlag=      100000 FMFlg1=           0
         NFxFlg=           0 DoJE=F BraDBF=F KetDBF=F FulRan=T
         wScrn=  0.000000 ICntrl=       0 IOpCl=  0 I1Cent=           0 NGrid=           0
         NMat0=    1 NMatS0=      1 NMatT0=    0 NMatD0=    1 NMtDS0=    0 NMtDT0=    0
 Symmetry not used in FoFCou.
 E= -1639.54101901761    
 DIIS: error= 2.47D-02 at cycle   1 NSaved=   1.
 NSaved= 1 IEnMin= 1 EnMin= -1639.54101901761     IErMin= 1 ErrMin= 2.47D-02
 ErrMax= 2.47D-02  0.00D+00 EMaxC= 1.00D-01 BMatC= 1.17D+00 BMatP= 1.17D+00
 IDIUse=3 WtCom= 7.53D-01 WtEn= 2.47D-01
 Coeff-Com:  0.100D+01
 Coeff-En:   0.100D+01
 Coeff:      0.100D+01
 Gap=     0.114 Goal=   None    Shift=    0.000
 GapD=    0.114 DampG=1.000 DampE=0.500 DampFc=0.5000 IDamp=-1.
 Damping current iteration by 5.00D-01
 RMSDP=5.30D-03 MaxDP=1.95D-01              OVMax= 2.69D-01

 Cycle   2  Pass 0  IDiag  1:
 RMSU=  2.58D-03    CP:  9.60D-01
 E= -1640.01281138514     Delta-E=       -0.471792367531 Rises=F Damp=T
 DIIS: error= 6.32D-03 at cycle   2 NSaved=   2.
 NSaved= 2 IEnMin= 2 EnMin= -1640.01281138514     IErMin= 2 ErrMin= 6.32D-03
 ErrMax= 6.32D-03  0.00D+00 EMaxC= 1.00D-01 BMatC= 9.32D-02 BMatP= 1.17D+00
 IDIUse=3 WtCom= 9.37D-01 WtEn= 6.32D-02
 Coeff-Com:  0.592D-01 0.941D+00
 Coeff-En:   0.108D+00 0.892D+00
 Coeff:      0.623D-01 0.938D+00
 Gap=     0.225 Goal=   None    Shift=    0.000
 RMSDP=2.16D-03 MaxDP=1.25D-01 DE=-4.72D-01 OVMax= 2.80D-01

 Cycle   3  Pass 0  IDiag  1:
 RMSU=  2.02D-03    CP:  9.24D-01  8.01D-01
 E= -1640.48226936827     Delta-E=       -0.469457983128 Rises=F Damp=F
 DIIS: error= 1.16D-02 at cycle   3 NSaved=   3.
 NSaved= 3 IEnMin= 3 EnMin= -1640.48226936827     IErMin= 2 ErrMin= 6.32D-03
 ErrMax= 1.16D-02  0.00D+00 EMaxC= 1.00D-01 BMatC= 1.66D-01 BMatP= 9.32D-02
 IDIUse=2 WtCom= 0.00D+00 WtEn= 1.00D+00
 Coeff-En:   0.000D+00 0.000D+00 0.100D+01
 Coeff:      0.000D+00 0.000D+00 0.100D+01
 Gap=     0.133 Goal=   None    Shift=    0.000
 RMSDP=3.11D-03 MaxDP=1.87D-01 DE=-4.69D-01 OVMax= 3.21D-01

 Cycle   4  Pass 0  IDiag  1:
 RMSU=  1.85D-03    CP:  9.36D-01  1.27D+00 -7.71D-02
 E= -1639.72937748949     Delta-E=        0.752891878781 Rises=F Damp=F
 DIIS: error= 2.34D-02 at cycle   4 NSaved=   4.
 NSaved= 4 IEnMin= 3 EnMin= -1640.48226936827     IErMin= 2 ErrMin= 6.32D-03
 ErrMax= 2.34D-02  0.00D+00 EMaxC= 1.00D-01 BMatC= 9.40D-01 BMatP= 9.32D-02
 IDIUse=2 WtCom= 0.00D+00 WtEn= 1.00D+00
 Coeff-En:   0.000D+00 0.000D+00 0.791D+00 0.209D+00
 Coeff:      0.000D+00 0.000D+00 0.791D+00 0.209D+00
 Gap=     0.137 Goal=   None    Shift=    0.000
 RMSDP=1.66D-03 MaxDP=1.07D-01 DE= 7.53D-01 OVMax= 2.10D-01

 Cycle   5  Pass 0  IDiag  1:
 RMSU=  3.75D-04    CP:  9.30D-01  1.02D+00  4.67D-01  4.65D-01
 E= -1640.57638108348     Delta-E=       -0.847003593991 Rises=F Damp=F
 DIIS: error= 7.32D-03 at cycle   5 NSaved=   5.
 NSaved= 5 IEnMin= 5 EnMin= -1640.57638108348     IErMin= 2 ErrMin= 6.32D-03
 ErrMax= 7.32D-03  0.00D+00 EMaxC= 1.00D-01 BMatC= 7.17D-02 BMatP= 9.32D-02
 IDIUse=3 WtCom= 9.27D-01 WtEn= 7.32D-02
 Coeff-Com:  0.327D-02 0.177D-01 0.326D+00-0.671D-01 0.721D+00
 Coeff-En:   0.000D+00 0.000D+00 0.348D+00 0.000D+00 0.652D+00
 Coeff:      0.303D-02 0.164D-01 0.327D+00-0.622D-01 0.716D+00
 Gap=     0.134 Goal=   None    Shift=    0.000
 RMSDP=6.29D-04 MaxDP=3.46D-02 DE=-8.47D-01 OVMax= 7.45D-02

 Cycle   6  Pass 0  IDiag  1:
 RMSU=  1.04D-04    CP:  9.27D-01  9.21D-01  6.83D-01  2.73D-01  7.70D-01
 E= -1640.64619763839     Delta-E=       -0.069816554907 Rises=F Damp=F
 DIIS: error= 9.64D-04 at cycle   6 NSaved=   6.
 NSaved= 6 IEnMin= 6 EnMin= -1640.64619763839     IErMin= 6 ErrMin= 9.64D-04
 ErrMax= 9.64D-04  0.00D+00 EMaxC= 1.00D-01 BMatC= 8.08D-04 BMatP= 7.17D-02
 IDIUse=3 WtCom= 9.90D-01 WtEn= 9.64D-03
 Coeff-Com:  0.583D-03 0.338D-02 0.147D+00-0.647D-01 0.452D+00 0.462D+00
 Coeff-En:   0.000D+00 0.000D+00 0.000D+00 0.000D+00 0.000D+00 0.100D+01
 Coeff:      0.577D-03 0.334D-02 0.146D+00-0.640D-01 0.447D+00 0.467D+00
 Gap=     0.131 Goal=   None    Shift=    0.000
 RMSDP=6.55D-05 MaxDP=5.39D-03 DE=-6.98D-02 OVMax= 5.69D-03

 Cycle   7  Pass 0  IDiag  1:
 RMSU=  3.23D-05    CP:  9.27D-01  9.25D-01  6.78D-01  2.74D-01  8.28D-01
                    CP:  5.13D-01
 E= -1640.64681199592     Delta-E=       -0.000614357531 Rises=F Damp=F
 DIIS: error= 2.35D-04 at cycle   7 NSaved=   7.
 NSaved= 7 IEnMin= 7 EnMin= -1640.64681199592     IErMin= 7 ErrMin= 2.35D-04
 ErrMax= 2.35D-04  0.00D+00 EMaxC= 1.00D-01 BMatC= 5.77D-05 BMatP= 8.08D-04
 IDIUse=3 WtCom= 9.98D-01 WtEn= 2.35D-03
 Coeff-Com:  0.190D-04 0.127D-02 0.550D-01-0.288D-01 0.180D+00 0.256D+00
 Coeff-Com:  0.537D+00
 Coeff-En:   0.000D+00 0.000D+00 0.000D+00 0.000D+00 0.000D+00 0.000D+00
 Coeff-En:   0.100D+01
 Coeff:      0.190D-04 0.126D-02 0.549D-01-0.288D-01 0.179D+00 0.256D+00
 Coeff:      0.538D+00
 Gap=     0.131 Goal=   None    Shift=    0.000
 RMSDP=2.05D-05 MaxDP=1.35D-03 DE=-6.14D-04 OVMax= 2.46D-03

 Cycle   8  Pass 0  IDiag  1:
 RMSU=  1.39D-05    CP:  9.27D-01  9.24D-01  6.81D-01  2.72D-01  8.25D-01
                    CP:  5.58D-01  6.11D-01
 E= -1640.64686133595     Delta-E=       -0.000049340027 Rises=F Damp=F
 DIIS: error= 8.96D-05 at cycle   8 NSaved=   8.
 NSaved= 8 IEnMin= 8 EnMin= -1640.64686133595     IErMin= 8 ErrMin= 8.96D-05
 ErrMax= 8.96D-05  0.00D+00 EMaxC= 1.00D-01 BMatC= 1.04D-05 BMatP= 5.77D-05
 IDIUse=1 WtCom= 1.00D+00 WtEn= 0.00D+00
 Coeff-Com:  0.104D-03-0.660D-03 0.803D-02-0.433D-02 0.233D-01 0.699D-01
 Coeff-Com:  0.332D+00 0.572D+00
 Coeff:      0.104D-03-0.660D-03 0.803D-02-0.433D-02 0.233D-01 0.699D-01
 Coeff:      0.332D+00 0.572D+00
 Gap=     0.131 Goal=   None    Shift=    0.000
 RMSDP=8.51D-06 MaxDP=4.52D-04 DE=-4.93D-05 OVMax= 7.85D-04

 Initial convergence to 1.0D-05 achieved.  Increase integral accuracy.
 Cycle   9  Pass 1  IDiag  1:
 E= -1640.64682825365     Delta-E=        0.000033082301 Rises=F Damp=F
 DIIS: error= 1.66D-04 at cycle   1 NSaved=   1.
 NSaved= 1 IEnMin= 1 EnMin= -1640.64682825365     IErMin= 1 ErrMin= 1.66D-04
 ErrMax= 1.66D-04  0.00D+00 EMaxC= 1.00D-01 BMatC= 1.12D-05 BMatP= 1.12D-05
 IDIUse=3 WtCom= 9.98D-01 WtEn= 1.66D-03
 Coeff-Com:  0.100D+01
 Coeff-En:   0.100D+01
 Coeff:      0.100D+01
 Gap=     0.131 Goal=   None    Shift=    0.000
 RMSDP=8.51D-06 MaxDP=4.52D-04 DE= 3.31D-05 OVMax= 8.56D-04

 Cycle  10  Pass 1  IDiag  1:
 RMSU=  1.30D-04    CP:  1.00D+00
 E= -1640.64683239604     Delta-E=       -0.000004142390 Rises=F Damp=F
 DIIS: error= 5.57D-05 at cycle   2 NSaved=   2.
 NSaved= 2 IEnMin= 2 EnMin= -1640.64683239604     IErMin= 2 ErrMin= 5.57D-05
 ErrMax= 5.57D-05  0.00D+00 EMaxC= 1.00D-01 BMatC= 6.40D-06 BMatP= 1.12D-05
 IDIUse=1 WtCom= 1.00D+00 WtEn= 0.00D+00
 Coeff-Com:  0.398D+00 0.602D+00
 Coeff:      0.398D+00 0.602D+00
 Gap=     0.131 Goal=   None    Shift=    0.000
 RMSDP=1.06D-05 MaxDP=3.71D-04 DE=-4.14D-06 OVMax= 1.08D-03

 Cycle  11  Pass 1  IDiag  1:
 RMSU=  1.06D-05    CP:  1.00D+00  1.00D+00
 E= -1640.64683271453     Delta-E=       -0.000000318494 Rises=F Damp=F
 DIIS: error= 5.09D-05 at cycle   3 NSaved=   3.
 NSaved= 3 IEnMin= 3 EnMin= -1640.64683271453     IErMin= 3 ErrMin= 5.09D-05
 ErrMax= 5.09D-05  0.00D+00 EMaxC= 1.00D-01 BMatC= 5.85D-06 BMatP= 6.40D-06
 IDIUse=1 WtCom= 1.00D+00 WtEn= 0.00D+00
 Coeff-Com:  0.131D-01 0.485D+00 0.502D+00
 Coeff:      0.131D-01 0.485D+00 0.502D+00
 Gap=     0.131 Goal=   None    Shift=    0.000
 RMSDP=5.61D-06 MaxDP=2.45D-04 DE=-3.18D-07 OVMax= 6.58D-04

 Cycle  12  Pass 1  IDiag  1:
 RMSU=  1.53D-06    CP:  1.00D+00  1.01D+00  4.98D-01
 E= -1640.64683795648     Delta-E=       -0.000005241949 Rises=F Damp=F
 DIIS: error= 9.44D-06 at cycle   4 NSaved=   4.
 NSaved= 4 IEnMin= 4 EnMin= -1640.64683795648     IErMin= 4 ErrMin= 9.44D-06
 ErrMax= 9.44D-06  0.00D+00 EMaxC= 1.00D-01 BMatC= 1.92D-07 BMatP= 5.85D-06
 IDIUse=1 WtCom= 1.00D+00 WtEn= 0.00D+00
 Coeff-Com: -0.381D-02 0.287D+00 0.317D+00 0.400D+00
 Coeff:     -0.381D-02 0.287D+00 0.317D+00 0.400D+00
 Gap=     0.131 Goal=   None    Shift=    0.000
 RMSDP=9.64D-07 MaxDP=5.59D-05 DE=-5.24D-06 OVMax= 1.10D-04

 Cycle  13  Pass 1  IDiag  1:
 RMSU=  3.64D-07    CP:  1.00D+00  1.01D+00  5.25D-01  4.43D-01
 E= -1640.64683813257     Delta-E=       -0.000000176085 Rises=F Damp=F
 DIIS: error= 1.39D-06 at cycle   5 NSaved=   5.
 NSaved= 5 IEnMin= 5 EnMin= -1640.64683813257     IErMin= 5 ErrMin= 1.39D-06
 ErrMax= 1.39D-06  0.00D+00 EMaxC= 1.00D-01 BMatC= 3.77D-09 BMatP= 1.92D-07
 IDIUse=1 WtCom= 1.00D+00 WtEn= 0.00D+00
 Coeff-Com: -0.256D-02 0.157D+00 0.174D+00 0.234D+00 0.438D+00
 Coeff:     -0.256D-02 0.157D+00 0.174D+00 0.234D+00 0.438D+00
 Gap=     0.131 Goal=   None    Shift=    0.000
 RMSDP=1.54D-07 MaxDP=6.54D-06 DE=-1.76D-07 OVMax= 1.56D-05

 Cycle  14  Pass 1  IDiag  1:
 RMSU=  1.13D-07    CP:  1.00D+00  1.01D+00  5.23D-01  4.66D-01  7.35D-01
 E= -1640.64683813599     Delta-E=       -0.000000003422 Rises=F Damp=F
 DIIS: error= 2.52D-07 at cycle   6 NSaved=   6.
 NSaved= 6 IEnMin= 6 EnMin= -1640.64683813599     IErMin= 6 ErrMin= 2.52D-07
 ErrMax= 2.52D-07  0.00D+00 EMaxC= 1.00D-01 BMatC= 1.37D-10 BMatP= 3.77D-09
 IDIUse=1 WtCom= 1.00D+00 WtEn= 0.00D+00
 Coeff-Com: -0.683D-03 0.369D-01 0.410D-01 0.569D-01 0.190D+00 0.676D+00
 Coeff:     -0.683D-03 0.369D-01 0.410D-01 0.569D-01 0.190D+00 0.676D+00
 Gap=     0.131 Goal=   None    Shift=    0.000
 RMSDP=4.14D-08 MaxDP=1.25D-06 DE=-3.42D-09 OVMax= 5.83D-06

 Cycle  15  Pass 1  IDiag  1:
 RMSU=  3.39D-08    CP:  1.00D+00  1.01D+00  5.23D-01  4.62D-01  7.72D-01
                    CP:  8.44D-01
 E= -1640.64683813601     Delta-E=       -0.000000000026 Rises=F Damp=F
 DIIS: error= 1.52D-07 at cycle   7 NSaved=   7.
 NSaved= 7 IEnMin= 7 EnMin= -1640.64683813601     IErMin= 7 ErrMin= 1.52D-07
 ErrMax= 1.52D-07  0.00D+00 EMaxC= 1.00D-01 BMatC= 4.26D-11 BMatP= 1.37D-10
 IDIUse=1 WtCom= 1.00D+00 WtEn= 0.00D+00
 Coeff-Com: -0.124D-03 0.441D-02 0.492D-02 0.722D-02 0.630D-01 0.415D+00
 Coeff-Com:  0.505D+00
 Coeff:     -0.124D-03 0.441D-02 0.492D-02 0.722D-02 0.630D-01 0.415D+00
 Coeff:      0.505D+00
 Gap=     0.131 Goal=   None    Shift=    0.000
 RMSDP=1.92D-08 MaxDP=8.60D-07 DE=-2.64D-11 OVMax= 2.52D-06

 Cycle  16  Pass 1  IDiag  1:
 RMSU=  1.16D-08    CP:  1.00D+00  1.01D+00  5.23D-01  4.64D-01  7.75D-01
                    CP:  8.97D-01  5.96D-01
 E= -1640.64683813608     Delta-E=       -0.000000000067 Rises=F Damp=F
 DIIS: error= 4.90D-08 at cycle   8 NSaved=   8.
 NSaved= 8 IEnMin= 8 EnMin= -1640.64683813608     IErMin= 8 ErrMin= 4.90D-08
 ErrMax= 4.90D-08  0.00D+00 EMaxC= 1.00D-01 BMatC= 5.54D-12 BMatP= 4.26D-11
 IDIUse=1 WtCom= 1.00D+00 WtEn= 0.00D+00
 Coeff-Com:  0.242D-04-0.273D-02-0.299D-02-0.410D-02 0.113D-01 0.164D+00
 Coeff-Com:  0.310D+00 0.525D+00
 Coeff:      0.242D-04-0.273D-02-0.299D-02-0.410D-02 0.113D-01 0.164D+00
 Coeff:      0.310D+00 0.525D+00
 Gap=     0.131 Goal=   None    Shift=    0.000
 RMSDP=6.15D-09 MaxDP=2.40D-07 DE=-6.73D-11 OVMax= 7.50D-07

 SCF Done:  E(RB3LYP) =  -1640.64683814     A.U. after   16 cycles
            NFock= 16  Conv=0.62D-08     -V/T= 1.9996
 KE= 1.641334052380D+03 PE=-1.247135353722D+04 EE= 4.868261710960D+03
 Leave Link  502 at Thu Oct  3 23:45:29 2019, MaxMem=  1610612736 cpu:      1735.1
 (Enter /home/sky/g09/l601.exe)
 Copying SCF densities to generalized density rwf, IOpCl= 0 IROHF=0.

 **********************************************************************

            Population analysis using the SCF density.

 **********************************************************************

 Orbital symmetries:
       Occupied  (A) (A) (A) (A) (A) (A) (A) (A) (A) (A) (A) (A)
                 (A) (A) (A) (A) (A) (A) (A) (A) (A) (A) (A) (A)
                 (A) (A) (A) (A) (A) (A) (A) (A) (A) (A) (A) (A)
                 (A) (A) (A) (A) (A) (A) (A) (A) (A) (A) (A) (A)
                 (A) (A) (A) (A) (A) (A) (A) (A) (A) (A) (A) (A)
                 (A) (A) (A) (A) (A) (A) (A) (A) (A) (A) (A) (A)
                 (A) (A) (A) (A) (A) (A) (A) (A) (A) (A) (A) (A)
                 (A) (A) (A) (A) (A) (A) (A) (A) (A) (A) (A) (A)
                 (A) (A) (A) (A) (A) (A) (A) (A) (A) (A) (A) (A)
                 (A) (A) (A) (A) (A) (A) (A) (A) (A) (A) (A) (A)
                 (A) (A) (A) (A) (A) (A) (A) (A)
       Virtual   (A) (A) (A) (A) (A) (A) (A) (A) (A) (A) (A) (A)
                 (A) (A) (A) (A) (A) (A) (A) (A) (A) (A) (A) (A)
                 (A) (A) (A) (A) (A) (A) (A) (A) (A) (A) (A) (A)
                 (A) (A) (A) (A) (A) (A) (A) (A) (A) (A) (A) (A)
                 (A) (A) (A) (A) (A) (A) (A) (A) (A) (A) (A) (A)
                 (A) (A) (A) (A) (A) (A) (A) (A) (A) (A) (A) (A)
                 (A) (A) (A) (A) (A) (A) (A) (A) (A) (A) (A) (A)
                 (A) (A) (A) (A) (A) (A) (A) (A) (A) (A) (A) (A)
                 (A) (A) (A) (A) (A) (A) (A) (A) (A) (A) (A) (A)
                 (A) (A) (A) (A) (A) (A) (A) (A) (A) (A) (A) (A)
                 (A) (A) (A) (A) (A) (A) (A) (A) (A) (A) (A) (A)
                 (A) (A) (A) (A) (A) (A) (A) (A) (A) (A) (A) (A)
                 (A) (A) (A) (A) (A) (A) (A) (A) (A) (A) (A) (A)
                 (A) (A) (A) (A) (A) (A) (A) (A) (A) (A) (A) (A)
                 (A) (A) (A) (A) (A) (A) (A) (A) (A) (A) (A) (A)
                 (A) (A) (A) (A) (A) (A) (A) (A) (A) (A) (A) (A)
                 (A) (A) (A) (A) (A) (A) (A) (A) (A) (A) (A) (A)
                 (A) (A) (A) (A) (A) (A) (A) (A) (A) (A) (A) (A)
                 (A) (A) (A) (A) (A) (A) (A) (A) (A) (A) (A) (A)
                 (A) (A) (A) (A) (A) (A) (A) (A) (A) (A) (A) (A)
                 (A) (A) (A) (A) (A) (A) (A) (A) (A) (A) (A) (A)
                 (A) (A) (A) (A) (A) (A) (A) (A) (A) (A) (A) (A)
                 (A) (A) (A) (A) (A) (A) (A) (A) (A) (A) (A) (A)
                 (A) (A) (A) (A) (A) (A) (A) (A) (A) (A) (A) (A)
                 (A) (A) (A) (A) (A) (A) (A) (A) (A) (A) (A) (A)
                 (A) (A) (A) (A) (A) (A) (A) (A) (A) (A) (A) (A)
                 (A) (A) (A) (A) (A) (A) (A) (A) (A) (A) (A) (A)
                 (A) (A) (A) (A) (A) (A) (A) (A) (A) (A) (A) (A)
                 (A) (A) (A) (A) (A) (A) (A) (A) (A) (A) (A) (A)
                 (A) (A) (A) (A) (A) (A) (A) (A) (A) (A) (A) (A)
                 (A) (A) (A) (A) (A) (A) (A) (A) (A) (A) (A) (A)
                 (A) (A) (A) (A) (A) (A) (A) (A) (A) (A) (A) (A)
                 (A) (A) (A) (A) (A) (A) (A) (A) (A) (A) (A) (A)
                 (A) (A) (A) (A) (A) (A) (A) (A) (A) (A) (A) (A)
                 (A) (A) (A) (A) (A) (A) (A) (A) (A) (A) (A) (A)
                 (A) (A) (A) (A) (A) (A) (A) (A) (A) (A) (A) (A)
                 (A) (A) (A) (A) (A) (A) (A) (A) (A) (A) (A) (A)
                 (A) (A) (A) (A) (A) (A) (A) (A) (A) (A) (A) (A)
                 (A) (A) (A) (A) (A) (A) (A) (A) (A) (A) (A) (A)
                 (A) (A) (A)
 The electronic state is 1-A.
 Alpha  occ. eigenvalues --  -19.18839 -19.18639 -19.16503 -19.13250 -19.06313
 Alpha  occ. eigenvalues --  -14.36454 -14.32512 -10.28433 -10.25946 -10.22860
 Alpha  occ. eigenvalues --  -10.22268 -10.22145 -10.21977 -10.21356 -10.20015
 Alpha  occ. eigenvalues --  -10.18090 -10.17903 -10.17664 -10.17591 -10.17295
 Alpha  occ. eigenvalues --  -10.16944 -10.16933 -10.16906 -10.16827 -10.16735
 Alpha  occ. eigenvalues --  -10.16697 -10.16691 -10.16625 -10.16574 -10.16479
 Alpha  occ. eigenvalues --  -10.16464 -10.16387 -10.16381 -10.16270 -10.16072
 Alpha  occ. eigenvalues --  -10.15446 -10.15269  -1.39896  -1.13208  -1.11782
 Alpha  occ. eigenvalues --   -1.06739  -1.06039  -1.00046  -0.98069  -0.90242
 Alpha  occ. eigenvalues --   -0.89606  -0.87273  -0.86890  -0.85859  -0.82377
 Alpha  occ. eigenvalues --   -0.80240  -0.78168  -0.78057  -0.77116  -0.75479
 Alpha  occ. eigenvalues --   -0.74747  -0.74221  -0.72771  -0.70783  -0.70089
 Alpha  occ. eigenvalues --   -0.67201  -0.66898  -0.65675  -0.65182  -0.63691
 Alpha  occ. eigenvalues --   -0.63091  -0.62125  -0.61184  -0.60095  -0.58935
 Alpha  occ. eigenvalues --   -0.58879  -0.57210  -0.56417  -0.55097  -0.54196
 Alpha  occ. eigenvalues --   -0.53704  -0.53262  -0.51210  -0.50091  -0.49609
 Alpha  occ. eigenvalues --   -0.49232  -0.48394  -0.47704  -0.47075  -0.46035
 Alpha  occ. eigenvalues --   -0.45861  -0.45614  -0.44749  -0.44544  -0.44230
 Alpha  occ. eigenvalues --   -0.44176  -0.43837  -0.43649  -0.43444  -0.43015
 Alpha  occ. eigenvalues --   -0.42325  -0.42142  -0.41793  -0.41406  -0.40869
 Alpha  occ. eigenvalues --   -0.40450  -0.39531  -0.38140  -0.37982  -0.37066
 Alpha  occ. eigenvalues --   -0.36892  -0.36195  -0.35945  -0.35545  -0.34974
 Alpha  occ. eigenvalues --   -0.34629  -0.34265  -0.33878  -0.32374  -0.31687
 Alpha  occ. eigenvalues --   -0.31030  -0.29975  -0.28696  -0.26845  -0.26464
 Alpha  occ. eigenvalues --   -0.26126  -0.25936  -0.24096  -0.23525  -0.21324
 Alpha  occ. eigenvalues --   -0.20338  -0.19627  -0.17496
 Alpha virt. eigenvalues --   -0.04400  -0.01105   0.00288   0.00889   0.01142
 Alpha virt. eigenvalues --    0.02506   0.03756   0.04364   0.06178   0.07032
 Alpha virt. eigenvalues --    0.09235   0.10249   0.10587   0.11171   0.11507
 Alpha virt. eigenvalues --    0.12095   0.13218   0.14297   0.15275   0.15585
 Alpha virt. eigenvalues --    0.16043   0.16460   0.16731   0.17682   0.17928
 Alpha virt. eigenvalues --    0.18565   0.18725   0.19251   0.19726   0.20042
 Alpha virt. eigenvalues --    0.20435   0.20563   0.21168   0.21705   0.22333
 Alpha virt. eigenvalues --    0.22946   0.23976   0.24853   0.25202   0.25564
 Alpha virt. eigenvalues --    0.26228   0.27215   0.28159   0.28935   0.29896
 Alpha virt. eigenvalues --    0.30201   0.31012   0.31696   0.32109   0.32197
 Alpha virt. eigenvalues --    0.32706   0.33838   0.34153   0.35011   0.35217
 Alpha virt. eigenvalues --    0.35707   0.36326   0.37182   0.37492   0.38144
 Alpha virt. eigenvalues --    0.38922   0.39675   0.40234   0.40710   0.41354
 Alpha virt. eigenvalues --    0.42213   0.43670   0.44618   0.46285   0.46755
 Alpha virt. eigenvalues --    0.46846   0.48724   0.49016   0.49490   0.50656
 Alpha virt. eigenvalues --    0.51290   0.51875   0.52672   0.52776   0.53263
 Alpha virt. eigenvalues --    0.53480   0.54356   0.55123   0.55344   0.55761
 Alpha virt. eigenvalues --    0.56302   0.56835   0.57108   0.57849   0.57913
 Alpha virt. eigenvalues --    0.58368   0.58836   0.59456   0.59693   0.59927
 Alpha virt. eigenvalues --    0.60231   0.60494   0.60929   0.61322   0.61716
 Alpha virt. eigenvalues --    0.61833   0.62292   0.62515   0.62643   0.62913
 Alpha virt. eigenvalues --    0.63340   0.63531   0.63816   0.63923   0.64234
 Alpha virt. eigenvalues --    0.64836   0.64947   0.65301   0.65552   0.65747
 Alpha virt. eigenvalues --    0.66362   0.67061   0.67373   0.68035   0.68861
 Alpha virt. eigenvalues --    0.69283   0.69497   0.69859   0.71401   0.72168
 Alpha virt. eigenvalues --    0.72642   0.73520   0.74786   0.74969   0.75515
 Alpha virt. eigenvalues --    0.75929   0.76783   0.77430   0.78457   0.80136
 Alpha virt. eigenvalues --    0.80793   0.81327   0.82451   0.82676   0.83057
 Alpha virt. eigenvalues --    0.83963   0.84807   0.84993   0.85251   0.85391
 Alpha virt. eigenvalues --    0.85731   0.86345   0.86581   0.86652   0.87202
 Alpha virt. eigenvalues --    0.87343   0.87545   0.88679   0.88799   0.89395
 Alpha virt. eigenvalues --    0.90192   0.90375   0.91275   0.91485   0.91987
 Alpha virt. eigenvalues --    0.93016   0.93386   0.93991   0.94785   0.95986
 Alpha virt. eigenvalues --    0.96474   0.96916   0.97350   0.98153   0.98208
 Alpha virt. eigenvalues --    0.98384   0.99051   0.99705   1.00569   1.00796
 Alpha virt. eigenvalues --    1.02393   1.02847   1.03085   1.03420   1.03857
 Alpha virt. eigenvalues --    1.05008   1.05508   1.05798   1.05864   1.07188
 Alpha virt. eigenvalues --    1.08240   1.08731   1.09432   1.10217   1.10945
 Alpha virt. eigenvalues --    1.11078   1.12781   1.13144   1.14499   1.14855
 Alpha virt. eigenvalues --    1.15709   1.16161   1.17073   1.17497   1.18745
 Alpha virt. eigenvalues --    1.19206   1.20042   1.20460   1.20856   1.21393
 Alpha virt. eigenvalues --    1.22205   1.23400   1.23940   1.24171   1.24871
 Alpha virt. eigenvalues --    1.26120   1.27371   1.27729   1.28137   1.29608
 Alpha virt. eigenvalues --    1.29894   1.30524   1.31694   1.33428   1.33859
 Alpha virt. eigenvalues --    1.34050   1.35991   1.36571   1.37420   1.38524
 Alpha virt. eigenvalues --    1.39052   1.40018   1.40676   1.41446   1.42459
 Alpha virt. eigenvalues --    1.43241   1.43659   1.44389   1.44751   1.45429
 Alpha virt. eigenvalues --    1.45685   1.46634   1.47451   1.47985   1.48869
 Alpha virt. eigenvalues --    1.49696   1.49846   1.49938   1.50335   1.50928
 Alpha virt. eigenvalues --    1.51406   1.51524   1.52347   1.52790   1.53827
 Alpha virt. eigenvalues --    1.54458   1.55324   1.58713   1.59364   1.60074
 Alpha virt. eigenvalues --    1.61187   1.62552   1.64162   1.64887   1.65322
 Alpha virt. eigenvalues --    1.66546   1.67608   1.70175   1.72336   1.72920
 Alpha virt. eigenvalues --    1.73438   1.74573   1.76243   1.76680   1.77326
 Alpha virt. eigenvalues --    1.78459   1.79360   1.79718   1.81349   1.82281
 Alpha virt. eigenvalues --    1.82865   1.83459   1.84380   1.85841   1.87125
 Alpha virt. eigenvalues --    1.87366   1.88644   1.88769   1.89249   1.90037
 Alpha virt. eigenvalues --    1.90099   1.91484   1.92666   1.93150   1.93952
 Alpha virt. eigenvalues --    1.94154   1.94903   1.95370   1.95931   1.96726
 Alpha virt. eigenvalues --    1.97551   1.98688   1.98817   1.99367   1.99735
 Alpha virt. eigenvalues --    2.00687   2.01507   2.02241   2.03789   2.04072
 Alpha virt. eigenvalues --    2.04720   2.05943   2.06343   2.07690   2.08066
 Alpha virt. eigenvalues --    2.08699   2.09573   2.10266   2.10787   2.12345
 Alpha virt. eigenvalues --    2.12648   2.13039   2.14700   2.17461   2.17835
 Alpha virt. eigenvalues --    2.18290   2.18781   2.19383   2.20382   2.20809
 Alpha virt. eigenvalues --    2.21757   2.22392   2.22940   2.24422   2.24582
 Alpha virt. eigenvalues --    2.25210   2.26500   2.26954   2.27266   2.27697
 Alpha virt. eigenvalues --    2.28550   2.29614   2.30349   2.31090   2.32158
 Alpha virt. eigenvalues --    2.33381   2.33944   2.34437   2.34927   2.35487
 Alpha virt. eigenvalues --    2.36011   2.36414   2.36772   2.37831   2.39252
 Alpha virt. eigenvalues --    2.39935   2.40831   2.42455   2.42644   2.43574
 Alpha virt. eigenvalues --    2.45499   2.46914   2.47612   2.47936   2.48937
 Alpha virt. eigenvalues --    2.49675   2.51021   2.52482   2.53249   2.54811
 Alpha virt. eigenvalues --    2.56311   2.57837   2.59731   2.61339   2.62123
 Alpha virt. eigenvalues --    2.63485   2.64367   2.65332   2.67033   2.67529
 Alpha virt. eigenvalues --    2.68421   2.69006   2.70160   2.71141   2.72281
 Alpha virt. eigenvalues --    2.72752   2.73495   2.74567   2.75984   2.77077
 Alpha virt. eigenvalues --    2.77378   2.78578   2.79539   2.80351   2.81739
 Alpha virt. eigenvalues --    2.82293   2.84001   2.84346   2.84684   2.85572
 Alpha virt. eigenvalues --    2.86981   2.87963   2.88674   2.89520   2.90284
 Alpha virt. eigenvalues --    2.92186   2.93406   2.93967   2.94066   2.94865
 Alpha virt. eigenvalues --    2.96813   3.01217   3.02309   3.03577   3.03847
 Alpha virt. eigenvalues --    3.05434   3.05960   3.07292   3.10117   3.11125
 Alpha virt. eigenvalues --    3.12084   3.12248   3.13733   3.14581   3.19557
 Alpha virt. eigenvalues --    3.22259   3.25488   3.26145   3.33462   3.38009
 Alpha virt. eigenvalues --    3.43091   3.46086   3.54758   3.61243   3.64799
 Alpha virt. eigenvalues --    3.68234   3.72770   3.81831   4.01640   4.03499
 Alpha virt. eigenvalues --    4.10930   4.13500   4.14399   4.15115   4.15329
 Alpha virt. eigenvalues --    4.16342   4.17660   4.20870   4.21077   4.25116
 Alpha virt. eigenvalues --    4.26351   4.29471   4.30738   4.33309   4.38023
 Alpha virt. eigenvalues --    4.38801   4.42230   4.43046   4.45442   4.46886
 Alpha virt. eigenvalues --    4.48773   4.49987   4.52565   4.53350   4.60612
 Alpha virt. eigenvalues --    4.61893   4.67432   4.71657   4.78694   4.81477
 Alpha virt. eigenvalues --    4.84736   4.88934   4.91353   5.05419   5.11220
 Alpha virt. eigenvalues --    5.44499
          Condensed to atoms (all electrons):
 Mulliken charges:
               1
     1  O   -0.465795
     2  O    0.075409
     3  O   -0.627411
     4  O   -0.568508
     5  O   -0.574945
     6  N   -0.747850
     7  N   -0.758096
     8  C    0.385344
     9  C    0.366776
    10  C   -0.095916
    11  C    0.141424
    12  C    0.220217
    13  C    0.316341
    14  C   -0.050997
    15  C    0.013297
    16  C    0.188717
    17  C   -0.099043
    18  C    0.324138
    19  C    0.122895
    20  C   -0.232520
    21  C    0.261621
    22  C   -0.133070
    23  C    0.262548
    24  C   -0.210192
    25  C   -0.123152
    26  C   -0.179663
    27  C   -0.117910
    28  C   -0.197762
    29  C   -0.161057
    30  C   -0.176135
    31  C   -0.115698
    32  C   -0.110781
    33  C   -0.167013
    34  C   -0.195646
    35  C   -0.084540
    36  C   -0.112567
    37  C   -0.134981
    38  H    0.413157
    39  H    0.405190
    40  H    0.336351
    41  H    0.383740
    42  H    0.176059
    43  H    0.118100
    44  H    0.114018
    45  H    0.122365
    46  H    0.116990
    47  H    0.119634
    48  H    0.130932
    49  H    0.110453
    50  H    0.118991
    51  H    0.117515
    52  H    0.115818
    53  H    0.108521
    54  H    0.116015
    55  H    0.108899
    56  H    0.132741
    57  H    0.149960
    58  H    0.128043
    59  H    0.119025
 Sum of Mulliken charges =   0.00000
 Mulliken charges with hydrogens summed into heavy atoms:
               1
     1  O   -0.465795
     2  O    0.075409
     3  O   -0.214254
     4  O   -0.568508
     5  O   -0.169755
     6  N   -0.411499
     7  N   -0.374356
     8  C    0.385344
     9  C    0.366776
    10  C   -0.095916
    11  C    0.141424
    12  C    0.220217
    13  C    0.316341
    14  C   -0.050997
    15  C    0.013297
    16  C    0.188717
    17  C   -0.099043
    18  C    0.324138
    19  C    0.122895
    20  C   -0.056461
    21  C    0.261621
    22  C   -0.014969
    23  C    0.262548
    24  C   -0.096174
    25  C   -0.000787
    26  C   -0.062672
    27  C    0.001724
    28  C   -0.066830
    29  C   -0.050604
    30  C   -0.057145
    31  C    0.001817
    32  C    0.005037
    33  C   -0.058492
    34  C   -0.079631
    35  C    0.307061
    36  C    0.015476
    37  C   -0.015956
 Electronic spatial extent (au):  <R**2>=          13255.6809
 Charge=              0.0000 electrons
 Dipole moment (field-independent basis, Debye):
    X=             -1.4937    Y=             -0.3341    Z=              3.3601  Tot=              3.6923
 Quadrupole moment (field-independent basis, Debye-Ang):
   XX=           -206.3469   YY=           -195.0984   ZZ=           -193.9158
   XY=             -3.9265   XZ=             -4.5551   YZ=             10.2133
 Traceless Quadrupole moment (field-independent basis, Debye-Ang):
   XX=             -7.8932   YY=              3.3553   ZZ=              4.5379
   XY=             -3.9265   XZ=             -4.5551   YZ=             10.2133
 Octapole moment (field-independent basis, Debye-Ang**2):
  XXX=             19.7249  YYY=             24.0326  ZZZ=             49.3742  XYY=            -28.2062
  XXY=            -76.4446  XXZ=             13.1098  XZZ=              8.8850  YZZ=             40.3011
  YYZ=            -16.3161  XYZ=             17.0371
 Hexadecapole moment (field-independent basis, Debye-Ang**3):
 XXXX=          -8597.8380 YYYY=          -5940.9371 ZZZZ=          -2379.3481 XXXY=             28.1623
 XXXZ=           -151.8743 YYYX=             -1.2915 YYYZ=             84.4932 ZZZX=           -104.0751
 ZZZY=            107.1386 XXYY=          -2460.7082 XXZZ=          -1857.4904 YYZZ=          -1421.9592
 XXYZ=             22.4022 YYXZ=             38.5795 ZZXY=             -4.8483
 N-N= 4.321110935741D+03 E-N=-1.247135351236D+04  KE= 1.641334052380D+03
 No NMR shielding tensors so no spin-rotation constants.
 Leave Link  601 at Thu Oct  3 23:45:29 2019, MaxMem=  1610612736 cpu:        12.0
 (Enter /home/sky/g09/l701.exe)
 Compute integral first derivatives.
 ... and contract with generalized density number  0.
 Leave Link  701 at Thu Oct  3 23:45:29 2019, MaxMem=  1610612736 cpu:        11.3
 (Enter /home/sky/g09/l702.exe)
 L702 exits ... SP integral derivatives will be done elsewhere.
 Leave Link  702 at Thu Oct  3 23:45:29 2019, MaxMem=  1610612736 cpu:         0.5
 (Enter /home/sky/g09/l703.exe)
 Compute integral first derivatives, UseDBF=F ICtDFT=           0.
 Integral derivatives from FoFJK, PRISM(SPDF).
 Calling FoFJK, ICntrl=      2127 FMM=F ISym2X=0 I1Cent= 0 IOpClX= 0 NMat=1 NMatS=1 NMatT=0.
 FoFJK:  IHMeth= 1 ICntrl=    2127 DoSepK=F KAlg= 0 I1Cent=   0 FoldK=F
 IRaf=         0 NMat=   1 IRICut=       1 DoRegI=T DoRafI=F ISym2E= 0.
 FoFCou: FMM=F IPFlag=           0 FMFlag=      100000 FMFlg1=         800
         NFxFlg=           0 DoJE=F BraDBF=F KetDBF=F FulRan=T
         wScrn=  0.000000 ICntrl=    2127 IOpCl=  0 I1Cent=           0 NGrid=           0
         NMat0=    1 NMatS0=      1 NMatT0=    0 NMatD0=    1 NMtDS0=    0 NMtDT0=    0
 Symmetry not used in FoFCou.
 Leave Link  703 at Thu Oct  3 23:45:44 2019, MaxMem=  1610612736 cpu:       473.4
 (Enter /home/sky/g09/l716.exe)
 Dipole        =-5.87648545D-01-1.31455520D-01 1.32196561D+00
 ***** Axes restored to original set *****
 -------------------------------------------------------------------
 Center     Atomic                   Forces (Hartrees/Bohr)
 Number     Number              X              Y              Z
 -------------------------------------------------------------------
      1        8           0.033596456   -0.034873519    0.090492211
      2        8           1.714206445   -1.274511578    0.485146859
      3        8           0.143304917   -0.007117784   -0.043957997
      4        8          -0.505391117    0.213885580    0.212520761
      5        8          -0.173091103   -0.019999114    0.071806326
      6        7          -0.017125767   -0.068460657    0.015396039
      7        7           0.018297760   -0.002801761   -0.011885241
      8        6          -0.025495457    0.024938544   -0.035579511
      9        6           0.021121478    0.059880211   -0.006893313
     10        6          -0.002690587    0.024419161   -0.023521453
     11        6           0.014841957   -0.020937404   -0.018030825
     12        6          -1.332437427    1.151069902   -0.728371066
     13        6           0.025528705    0.028749707   -0.001831170
     14        6          -0.118312318    0.042184648   -0.013001631
     15        6           0.084996923    0.006632678   -0.028508708
     16        6          -0.023392012    0.000894068    0.011121702
     17        6          -0.042271798    0.003976692   -0.015329179
     18        6          -0.013168328    0.007839891   -0.035697200
     19        6           0.016384382   -0.010859519    0.036923357
     20        6          -0.020477842   -0.003011952    0.026808350
     21        6          -0.038764695   -0.013833435    0.035522648
     22        6          -0.036036144    0.014839565   -0.017391213
     23        6           0.078989311    0.019905685   -0.049287914
     24        6           0.005852930    0.035151123   -0.026191365
     25        6           0.038503860   -0.016205928    0.018202256
     26        6           0.001311375   -0.046159339    0.014682003
     27        6          -0.009563695   -0.039454143    0.006716197
     28        6          -0.004493657    0.017423365    0.017445946
     29        6           0.023964003    0.000141184    0.009392602
     30        6          -0.113877502   -0.006084488    0.038011124
     31        6           0.027752999    0.004608597   -0.034844252
     32        6           0.029628754   -0.003460358   -0.012577118
     33        6           0.006192122   -0.021120399   -0.019948443
     34        6           0.086278203    0.021775320   -0.064144742
     35        6          -0.288328612    0.249371712   -0.286170693
     36        6          -0.022273599    0.028367688   -0.024099507
     37        6           0.010974293    0.001886212    0.045417548
     38        1           0.006605309    0.009829557   -0.036136913
     39        1          -0.017201910    0.004292147    0.015860893
     40        1           0.006893466   -0.005325573    0.003508462
     41        1          -0.020119574   -0.010983376   -0.043564672
     42        1          -0.009019686   -0.005749286    0.041303106
     43        1          -0.026767955    0.014796482   -0.023016948
     44        1          -0.018599797    0.010066649   -0.012662887
     45        1           0.028500810   -0.015293323    0.024595707
     46        1           0.019804690   -0.012723222    0.011456966
     47        1          -0.001241159   -0.005225307    0.001138200
     48        1           0.012366233   -0.001758354    0.047643233
     49        1           0.010076005   -0.037663804    0.015401181
     50        1          -0.043123517    0.011193082   -0.013985605
     51        1           0.013289131    0.009912526   -0.038609733
     52        1           0.050098372   -0.007188900   -0.016043704
     53        1          -0.012808321    0.001283359   -0.047640170
     54        1           0.011947969    0.009357160   -0.022387988
     55        1           0.735012300   -0.370366811    0.051829123
     56        1          -0.294075456   -0.267445995    0.081688514
     57        1          -0.032291308    0.266045768    0.302174834
     58        1          -0.008660681    0.012131062   -0.007214615
     59        1          -0.005220131    0.021766006    0.026319632
 -------------------------------------------------------------------
 Cartesian Forces:  Max     1.714206445 RMS     0.240177656
 Z-matrix is all fixed cartesians, so copy forces.
 Leave Link  716 at Thu Oct  3 23:45:44 2019, MaxMem=  1610612736 cpu:         0.8
 (Enter /home/sky/g09/l103.exe)

 GradGradGradGradGradGradGradGradGradGradGradGradGradGradGradGradGradGrad
 Berny optimization.
 Search for a local minimum.
 Step number   1 out of a maximum of    2
 All quantities printed in internal units (Hartrees-Bohrs-Radians)
 Second derivative matrix not updated -- first step.
 ITU=  0
     Eigenvalues ---    0.00007   0.00032   0.00062   0.00073   0.00082
     Eigenvalues ---    0.00106   0.00130   0.00188   0.00214   0.00244
     Eigenvalues ---    0.00420   0.00609   0.00655   0.00721   0.00998
     Eigenvalues ---    0.01097   0.01241   0.01354   0.01521   0.01674
     Eigenvalues ---    0.01909   0.02115   0.02335   0.02580   0.02634
     Eigenvalues ---    0.02714   0.02741   0.03275   0.03487   0.03707
     Eigenvalues ---    0.03862   0.04013   0.04228   0.04482   0.04575
     Eigenvalues ---    0.05245   0.05452   0.05998   0.06093   0.06501
     Eigenvalues ---    0.06766   0.07029   0.07252   0.07459   0.07596
     Eigenvalues ---    0.07625   0.07656   0.07909   0.07925   0.08006
     Eigenvalues ---    0.08109   0.08278   0.08570   0.08751   0.08855
     Eigenvalues ---    0.09194   0.09602   0.09764   0.10183   0.11007
     Eigenvalues ---    0.11491   0.11732   0.12254   0.13603   0.13803
     Eigenvalues ---    0.14238   0.15267   0.16128   0.16310   0.16836
     Eigenvalues ---    0.16995   0.17405   0.17959   0.18436   0.18713
     Eigenvalues ---    0.19587   0.20044   0.20951   0.21646   0.22827
     Eigenvalues ---    0.23466   0.24768   0.25172   0.27746   0.28138
     Eigenvalues ---    0.28734   0.30227   0.30996   0.31883   0.33291
     Eigenvalues ---    0.35378   0.35710   0.36254   0.37732   0.39109
     Eigenvalues ---    0.40395   0.41033   0.41620   0.41770   0.41998
     Eigenvalues ---    0.42600   0.45045   0.45722   0.47011   0.48197
     Eigenvalues ---    0.50048   0.51040   0.53434   0.53786   0.56892
     Eigenvalues ---    0.58033   0.59646   0.60674   0.61334   0.64356
     Eigenvalues ---    0.65006   0.67221   0.68883   0.72140   0.74408
     Eigenvalues ---    0.75217   0.81692   0.83130   0.86001   0.89027
     Eigenvalues ---    0.90212   0.95111   0.96985   0.98168   1.05899
     Eigenvalues ---    1.08583   1.19443   1.21539   1.22441   1.25616
     Eigenvalues ---    1.26716   1.27148   1.30689   1.32699   1.35412
     Eigenvalues ---    1.42128   1.48332   1.50701   1.51315   1.52512
     Eigenvalues ---    1.55313   1.61104   1.64567   1.66655   1.71415
     Eigenvalues ---    1.75507   1.78723   1.80621   1.84217   1.87055
     Eigenvalues ---    1.87816   1.90133   1.94301   1.95484   1.98046
     Eigenvalues ---    2.00170   2.00521   2.07513   2.22130   2.49460
     Eigenvalues ---    2.72284   2.73904   2.80166   3.99789   4.22872
     Eigenvalues ---   20.66002
 Eigenvalue     1 is   6.98D-05 Eigenvector:
                          Z52       Z58       Z45       Z59       Z32
   1                    0.21699  -0.20460   0.19499  -0.17126   0.16926
                          Z36       Z49       Z50       Z25       Z53
   1                   -0.16812  -0.16284   0.16010   0.15687  -0.15635
 Quadratic step=2.925D+01 exceeds max=3.000D-01 adjusted using Lamda=-3.162D+00.
 Angle between NR and scaled steps=  85.73 degrees.
 Angle between quadratic step and forces=  41.36 degrees.
 Linear search not attempted -- first point.
 TrRot= -0.000695  0.000648 -0.000637 -0.057147 -0.000227  0.057033
 Variable       Old X    -DE/DX   Delta X   Delta X   Delta X     New X
                                 (Linear)    (Quad)   (Total)
    X1        3.55776   0.03360   0.00000   0.00918   0.00767   3.56543
    Y1        1.74241  -0.03487   0.00000  -0.00729  -0.00699   1.73542
    Z1        4.42686   0.09049   0.00000   0.01964   0.01979   4.44665
    X2       -4.31048   1.71421   0.00000   0.10297   0.10145  -4.20904
    Y2       -2.61179  -1.27451   0.00000  -0.06403  -0.06288  -2.67467
    Z2        2.27328   0.48515   0.00000   0.00581   0.00425   2.27754
    X3       -0.63204   0.14330   0.00000   0.03447   0.03498  -0.59706
    Y3        0.62533  -0.00712   0.00000  -0.00358  -0.00292   0.62240
    Z3       -4.99249  -0.04396   0.00000  -0.00987  -0.01065  -5.00313
    X4       -6.88764  -0.50539   0.00000  -0.10505  -0.10669  -6.99433
    Y4       -1.43154   0.21389   0.00000   0.05146   0.05295  -1.37859
    Z4        3.42261   0.21252   0.00000   0.02434   0.02213   3.44474
    X5       -9.29657  -0.17309   0.00000  -0.03920  -0.03962  -9.33619
    Y5       -0.08971  -0.02000   0.00000  -0.00704  -0.00534  -0.09506
    Z5       -1.30053   0.07181   0.00000   0.01998   0.01722  -1.28331
    X6        2.77569  -0.01713   0.00000  -0.00202  -0.00331   2.77238
    Y6       -2.89461  -0.06846   0.00000  -0.01552  -0.01518  -2.90978
    Z6        1.17724   0.01540   0.00000   0.00321   0.00324   1.18048
    X7        1.62528   0.01830   0.00000   0.00346   0.00348   1.62876
    Y7        3.28864  -0.00280   0.00000  -0.00117  -0.00073   3.28791
    Z7       -1.48589  -0.01189   0.00000  -0.00516  -0.00547  -1.49136
    X8        2.73735  -0.02550   0.00000  -0.00265  -0.00363   2.73371
    Y8        2.66504   0.02494   0.00000   0.00244   0.00281   2.66786
    Z8        2.59375  -0.03558   0.00000  -0.00226  -0.00231   2.59144
    X9        1.45863   0.02112   0.00000   0.00632   0.00548   1.46411
    Y9       -1.09367   0.05988   0.00000   0.01291   0.01339  -1.08028
    Z9        0.08340  -0.00689   0.00000  -0.00090  -0.00119   0.08221
   X10       -0.88093  -0.00269   0.00000   0.00272   0.00193  -0.87899
   Y10       -1.89071   0.02442   0.00000   0.00545   0.00619  -1.88452
   Z10       -0.52643  -0.02352   0.00000  -0.00521  -0.00602  -0.53246
   X11       -1.11992   0.01484   0.00000   0.00673   0.00550  -1.11442
   Y11       -4.41011  -0.02094   0.00000  -0.00488  -0.00410  -4.41421
   Z11        0.16540  -0.01803   0.00000  -0.00497  -0.00580   0.15960
   X12       -5.55412  -1.33244   0.00000  -0.03194  -0.03322  -5.58734
   Y12       -1.63929   1.15107   0.00000   0.03795   0.03926  -1.60003
   Z12        1.82007  -0.72837   0.00000  -0.03809  -0.03998   1.78009
   X13        1.17512   0.02553   0.00000   0.00814   0.00659   1.18172
   Y13       -5.01745   0.02875   0.00000   0.00310   0.00363  -5.01382
   Z13        1.22273  -0.00183   0.00000   0.00037   0.00007   1.22280
   X14       -5.16410  -0.11831   0.00000  -0.02455  -0.02517  -5.18927
   Y14       -0.76718   0.04218   0.00000   0.01264   0.01387  -0.75331
   Z14       -0.70052  -0.01300   0.00000  -0.00663  -0.00844  -0.70896
   X15       -2.94892   0.08500   0.00000   0.01668   0.01630  -2.93262
   Y15       -0.63888   0.00663   0.00000   0.00098   0.00194  -0.63694
   Z15       -1.71089  -0.02851   0.00000  -0.00375  -0.00504  -1.71593
   X16        5.46682  -0.02339   0.00000  -0.00649  -0.00690   5.45993
   Y16        1.10563   0.00089   0.00000   0.00050   0.00052   1.10615
   Z16       -0.71984   0.01112   0.00000   0.00170   0.00228  -0.71756
   X17        2.84489  -0.04227   0.00000  -0.01020  -0.01074   2.83415
   Y17        1.42052   0.00398   0.00000   0.00161   0.00194   1.42246
   Z17        0.04975  -0.01533   0.00000  -0.00393  -0.00394   0.04580
   X18        0.78543  -0.01317   0.00000  -0.00240  -0.00245   0.78298
   Y18        5.26165   0.00784   0.00000   0.00042   0.00097   5.26262
   Z18       -0.16107  -0.03570   0.00000  -0.00730  -0.00782  -0.16889
   X19        1.48648   0.01638   0.00000   0.00402   0.00338   1.48986
   Y19        5.04807  -0.01086   0.00000  -0.00213  -0.00163   5.04644
   Z19        2.24435   0.03692   0.00000   0.00860   0.00823   2.25259
   X20        7.17863  -0.02048   0.00000  -0.00332  -0.00420   7.17443
   Y20        0.13307  -0.00301   0.00000  -0.00084  -0.00099   0.13208
   Z20        0.87367   0.02681   0.00000   0.00619   0.00718   0.88085
   X21       -2.79414  -0.03876   0.00000  -0.00098  -0.00070  -2.79485
   Y21        0.43275  -0.01383   0.00000  -0.00377  -0.00286   0.42989
   Z21       -4.04332   0.03552   0.00000   0.00623   0.00495  -4.03837
   X22        6.16767  -0.03604   0.00000  -0.00890  -0.00871   6.15897
   Y22        1.73164   0.01484   0.00000   0.00411   0.00401   1.73565
   Z22       -3.05889  -0.01739   0.00000  -0.00630  -0.00556  -3.06446
   X23       -7.14402   0.07899   0.00000   0.00492   0.00470  -7.13931
   Y23        0.05958   0.01991   0.00000   0.00363   0.00507   0.06465
   Z23       -2.09322  -0.04929   0.00000  -0.00645  -0.00871  -2.10193
   X24       -3.05036   0.00585   0.00000   0.00323   0.00184  -3.04852
   Y24       -6.20684   0.03515   0.00000   0.00580   0.00680  -6.20005
   Z24       -0.02236  -0.02619   0.00000  -0.00563  -0.00688  -0.02923
   X25        9.52679   0.03850   0.00000   0.01067   0.00991   9.53671
   Y25       -0.21440  -0.01621   0.00000  -0.00357  -0.00400  -0.21841
   Z25        0.12938   0.01820   0.00000   0.00294   0.00447   0.13386
   X26        1.59440   0.00131   0.00000   0.00415   0.00214   1.59654
   Y26       -7.34652  -0.04616   0.00000  -0.01141  -0.01092  -7.35744
   Z26        2.08175   0.01468   0.00000   0.00399   0.00381   2.08556
   X27       -2.64856  -0.00956   0.00000   0.00048  -0.00137  -2.64993
   Y27       -8.51886  -0.03945   0.00000  -0.00989  -0.00893  -8.52779
   Z27        0.83648   0.00672   0.00000   0.00263   0.00150   0.83799
   X28        0.89880  -0.00449   0.00000   0.00066  -0.00013   0.89866
   Y28        6.88543   0.01742   0.00000   0.00332   0.00391   6.88935
   Z28        3.89107   0.01745   0.00000   0.00741   0.00689   3.89796
   X29       -0.34778   0.02396   0.00000   0.00855   0.00639  -0.34139
   Y29       -9.08444   0.00014   0.00000  -0.00313  -0.00242  -9.08686
   Z29        1.87720   0.00939   0.00000   0.00357   0.00297   1.88016
   X30       -6.89715  -0.11388   0.00000  -0.02426  -0.02382  -6.92097
   Y30        1.11667  -0.00608   0.00000  -0.00146  -0.00008   1.11659
   Z30       -4.42318   0.03801   0.00000   0.00737   0.00514  -4.41804
   X31        8.51413   0.02775   0.00000   0.00593   0.00626   8.52038
   Y31        1.38379   0.00461   0.00000   0.00217   0.00179   1.38558
   Z31       -3.79655  -0.03484   0.00000  -0.01131  -0.01003  -3.80658
   X32       10.20392   0.02963   0.00000   0.00929   0.00914  10.21306
   Y32        0.40365  -0.00346   0.00000  -0.00033  -0.00087   0.40278
   Z32       -2.20789  -0.01258   0.00000  -0.00591  -0.00424  -2.21213
   X33       -0.57287   0.00619   0.00000  -0.00017   0.00019  -0.57268
   Y33        7.33110  -0.02112   0.00000  -0.00500  -0.00430   7.32680
   Z33       -0.94740  -0.01995   0.00000  -0.00570  -0.00656  -0.95396
   X34       -4.74112   0.08628   0.00000   0.01449   0.01517  -4.72596
   Y34        1.32605   0.02178   0.00000   0.00375   0.00487   1.33092
   Z34       -5.37116  -0.06414   0.00000  -0.01162  -0.01335  -5.38451
   X35       -4.60727  -0.28833   0.00000  -0.02078  -0.02292  -4.63019
   Y35       -3.43883   0.24937   0.00000   0.02278   0.02401  -3.41482
   Z35        4.71247  -0.28617   0.00000  -0.03240  -0.03404   4.67843
   X36       -1.15654  -0.02227   0.00000  -0.00551  -0.00532  -1.16186
   Y36        9.14154   0.02837   0.00000   0.00567   0.00646   9.14799
   Z36        0.71137  -0.02410   0.00000  -0.00392  -0.00494   0.70643
   X37       -0.42569   0.01097   0.00000   0.00226   0.00188  -0.42381
   Y37        8.95190   0.00189   0.00000   0.00099   0.00172   8.95363
   Z37        3.11260   0.04542   0.00000   0.01203   0.01118   3.12378
   X38       -0.80238   0.00661   0.00000   0.00212   0.00307  -0.79931
   Y38        1.10981   0.00983   0.00000   0.00248   0.00313   1.11294
   Z38       -6.68358  -0.03614   0.00000  -0.01013  -0.01097  -6.69454
   X39       -9.19435  -0.01720   0.00000  -0.00524  -0.00612  -9.20047
   Y39       -0.96851   0.00429   0.00000  -0.00049   0.00121  -0.96729
   Z39        0.31035   0.01586   0.00000   0.00824   0.00552   0.31587
   X40        4.57167   0.00689   0.00000   0.00229   0.00089   4.57256
   Y40       -2.76638  -0.00533   0.00000  -0.00241  -0.00226  -2.76864
   Z40        1.72160   0.00351   0.00000   0.00083   0.00127   1.72286
   X41        0.61995  -0.02012   0.00000  -0.00537  -0.00512   0.61483
   Y41        2.62629  -0.01098   0.00000  -0.00312  -0.00258   2.62371
   Z41       -2.84365  -0.04356   0.00000  -0.01215  -0.01268  -2.85633
   X42        6.67644  -0.00902   0.00000  -0.00204  -0.00338   6.67305
   Y42       -0.29003  -0.00575   0.00000  -0.00157  -0.00165  -0.29168
   Z42        2.71005   0.04130   0.00000   0.01183   0.01272   2.72276
   X43        4.87184  -0.02677   0.00000  -0.00881  -0.00824   4.86360
   Y43        2.52130   0.01480   0.00000   0.00466   0.00469   2.52599
   Z43       -4.29598  -0.02302   0.00000  -0.00744  -0.00701  -4.30299
   X44       -4.82658  -0.01860   0.00000  -0.00457  -0.00573  -4.83231
   Y44       -5.78982   0.01007   0.00000   0.00266   0.00385  -5.78597
   Z44       -0.82619  -0.01266   0.00000  -0.00297  -0.00463  -0.83081
   X45       10.82946   0.02850   0.00000   0.00954   0.00841  10.83788
   Y45       -0.95333  -0.01529   0.00000  -0.00436  -0.00493  -0.95826
   Z45        1.39384   0.02460   0.00000   0.00645   0.00828   1.40212
   X46        3.36897   0.01980   0.00000   0.00730   0.00506   3.37402
   Y46       -7.77919  -0.01272   0.00000  -0.00440  -0.00410  -7.78329
   Z46        2.88076   0.01146   0.00000   0.00343   0.00366   2.88442
   X47       -4.12750  -0.00124   0.00000   0.00041  -0.00158  -4.12908
   Y47       -9.92188  -0.00523   0.00000  -0.00274  -0.00161  -9.92349
   Z47        0.70463   0.00114   0.00000   0.00118  -0.00026   0.70436
   X48        1.47021   0.01237   0.00000   0.00421   0.00297   1.47318
   Y48        6.66001  -0.00176   0.00000  -0.00062  -0.00007   6.65995
   Z48        5.73497   0.04764   0.00000   0.01425   0.01386   5.74883
   X49       -0.08914   0.01008   0.00000   0.00463   0.00212  -0.08703
   Y49      -10.91105  -0.03766   0.00000  -0.01129  -0.01060 -10.92165
   Z49        2.53038   0.01540   0.00000   0.00482   0.00430   2.53469
   X50       -8.42954  -0.04312   0.00000  -0.01464  -0.01389  -8.44344
   Y50        1.75687   0.01119   0.00000   0.00253   0.00407   1.76094
   Z50       -5.44222  -0.01399   0.00000  -0.00258  -0.00515  -5.44737
   X51        9.02102   0.01329   0.00000   0.00374   0.00454   9.02556
   Y51        1.88578   0.00991   0.00000   0.00339   0.00294   1.88872
   Z51       -5.61927  -0.03861   0.00000  -0.01288  -0.01150  -5.63076
   X52       12.03201   0.05010   0.00000   0.01507   0.01502  12.04703
   Y52        0.13624  -0.00719   0.00000  -0.00165  -0.00241   0.13384
   Z52       -2.78300  -0.01604   0.00000  -0.00615  -0.00405  -2.78705
   X53       -1.14564  -0.01281   0.00000  -0.00412  -0.00332  -1.14896
   Y53        7.51942   0.00128   0.00000  -0.00025   0.00049   7.51991
   Z53       -2.79318  -0.04764   0.00000  -0.01340  -0.01440  -2.80758
   X54       -4.56013   0.01195   0.00000   0.00361   0.00479  -4.55534
   Y54        2.15531   0.00936   0.00000   0.00262   0.00370   2.15900
   Z54       -7.18009  -0.02239   0.00000  -0.00679  -0.00849  -7.18858
   X55       -3.37525   0.73501   0.00000   0.14321   0.14097  -3.23428
   Y55       -4.01772  -0.37037   0.00000  -0.07278  -0.07170  -4.08942
   Z55        4.72346   0.05183   0.00000   0.01163   0.01032   4.73377
   X56       -5.74466  -0.29408   0.00000  -0.07051  -0.07290  -5.81755
   Y56       -4.38576  -0.26745   0.00000  -0.06363  -0.06225  -4.44802
   Z56        5.19739   0.08169   0.00000   0.01474   0.01284   5.21024
   X57       -4.86472  -0.03229   0.00000  -0.00617  -0.00851  -4.87323
   Y57       -2.51921   0.26605   0.00000   0.06639   0.06767  -2.45154
   Z57        5.94359   0.30217   0.00000   0.06889   0.06718   6.01077
   X58       -2.20812  -0.00866   0.00000  -0.00330  -0.00279  -2.21092
   Y58       10.75760   0.01213   0.00000   0.00366   0.00456  10.76217
   Z58        0.12932  -0.00721   0.00000  -0.00174  -0.00302   0.12629
   X59       -0.91112  -0.00522   0.00000  -0.00122  -0.00172  -0.91284
   Y59       10.41459   0.02177   0.00000   0.00608   0.00689  10.42148
   Z59        4.34305   0.02632   0.00000   0.00883   0.00785   4.35090
         Item               Value     Threshold  Converged?
 Maximum Force            1.714206     0.000450     NO 
 RMS     Force            0.240178     0.000300     NO 
 Maximum Displacement     0.140972     0.001800     NO 
 RMS     Displacement     0.022557     0.001200     NO 
 Predicted change in Energy=-5.031240D-01
 GradGradGradGradGradGradGradGradGradGradGradGradGradGradGradGradGradGrad

 Leave Link  103 at Thu Oct  3 23:45:44 2019, MaxMem=  1610612736 cpu:         2.5
 (Enter /home/sky/g09/l9999.exe)
 1\1\GINC-GN01\Force\RB3LYP\6-31G(d)\C30H22N2O5\SKY\03-Oct-2019\0\\#p f
 orce b3lyp 6-31g(d)\\[No Title]\\0,1\O,1.882683,0.922046,2.342592\O,-2
 .28101,-1.382101,1.20297\O,-0.334459,0.330908,-2.64191\O,-3.644784,-0.
 757537,1.811167\O,-4.919531,-0.047475,-0.688212\N,1.468834,-1.531759,0
 .622968\N,0.860062,1.740275,-0.7863\C,1.448541,1.410281,1.372555\C,0.7
 71872,-0.578745,0.044134\C,-0.466166,-1.00052,-0.278576\C,-0.592636,-2
 .333729,0.087524\C,-2.939113,-0.867475,0.963142\C,0.621849,-2.65512,0.
 647041\C,-2.732724,-0.405976,-0.3707\C,-1.5605,-0.338082,-0.905363\C,2
 .892917,0.585076,-0.380925\C,1.505449,0.751709,0.026325\C,0.415634,2.7
 84345,-0.085235\C,0.786609,2.671323,1.18766\C,3.798767,0.070418,0.4623
 25\C,-1.478597,0.229002,-2.139633\C,3.263793,0.916344,-1.618697\C,-3.7
 80452,0.031528,-1.107682\C,-1.614179,-3.28452,-0.01183\C,5.041361,-0.1
 13457,0.068466\C,0.84372,-3.887611,1.101615\C,-1.401556,-4.507985,0.44
 2648\C,0.475622,3.643614,2.059064\C,-0.184035,-4.807278,0.993369\C,-3.
 649814,0.590916,-2.340648\C,4.505481,0.73227,-2.009048\C,5.399682,0.21
 3604,-1.168364\C,-0.303152,3.879453,-0.501344\C,-2.508895,0.701717,-2.
 842294\C,-2.438061,-1.819751,2.493734\C,-0.612017,4.837494,0.376441\C,
 -0.225264,4.737143,1.647117\H,-0.424602,0.587287,-3.536797\H,-4.865441
 ,-0.512513,0.164229\H,2.419225,-1.463905,0.911031\H,0.328065,1.389771,
 -1.504797\H,3.533018,-0.153477,1.434096\H,2.578067,1.334214,-2.273336\
 H,-2.554114,-3.063841,-0.4372\H,5.730706,-0.504481,0.737588\H,1.782781
 ,-4.116572,1.52443\H,-2.184181,-5.250433,0.372872\H,0.778002,3.524327,
 3.034813\H,-0.047173,-5.773879,1.339022\H,-4.460722,0.929694,-2.879899
 \H,4.773716,0.997914,-2.973588\H,6.367064,0.072097,-1.4727\H,-0.606248
 ,3.979105,-1.478089\H,-2.413117,1.140539,-3.799541\H,-1.786106,-2.1260
 86,2.499545\H,-3.039941,-2.320845,2.750342\H,-2.574299,-1.333106,3.145
 21\H,-1.168487,5.692679,0.068431\H,-0.482145,5.511163,2.298241\\Versio
 n=ES64L-G09RevD.01\State=1-A\HF=-1640.6468381\RMSD=6.152e-09\RMSF=2.40
 2e-01\Dipole=0.6021514,-0.0002842,-1.3219751\Quadrupole=-6.510572,1.23
 80691,5.2725028,-1.520677,0.4798317,-8.0789496\PG=C01 [X(C30H22N2O5)]\
 \@


 ... FOR AFTERWARDS A MAN FINDS PLEASURE IN HIS PAINS,
 WHEN HE HAS SUFFERED LONG AND WANDERED FAR.

                                    -- HOMER
 Job cpu time:       0 days  0 hours 38 minutes 25.6 seconds.
 File lengths (MBytes):  RWF=    195 Int=      0 D2E=      0 Chk=     20 Scr=      1
 Normal termination of Gaussian 09 at Thu Oct  3 23:45:45 2019.
