 DBCSR| Multiplication driver                                               BLAS
 DBCSR| Multrec recursion limit                                              512
 DBCSR| Multiplication stack size                                           1000
 DBCSR| Maximum elements for images                                    UNLIMITED
 DBCSR| Randmat seed                                                    12341313
 DBCSR| Multiplication size stacks                                             3


  **** **** ******  **  PROGRAM STARTED AT               2016-09-29 20:48:09.464
 ***** ** ***  *** **   PROGRAM STARTED ON                Xins-MacBook-Pro.local
 **    ****   ******    PROGRAM STARTED BY                             bismarrck
 ***** **    ** ** **   PROGRAM PROCESS ID                                 41179
  **** **  *******  **  PROGRAM STARTED IN   /Users/bismarrck/Desktop/test1/freq

 CP2K| version string:                                          CP2K version 3.0
 CP2K| source code revision number:                                    svn:16458
 CP2K| cp2kflags: fftw3 no_statm_access
 CP2K| is freely available from                            https://www.cp2k.org/
 CP2K| Program compiled at                          Thu Sep 29 20:02:40 CST 2016
 CP2K| Program compiled on                                Xins-MacBook-Pro.local
 CP2K| Program compiled for                       Darwin-IntelMacintosh-gfortran
 CP2K| Data directory path    /Users/bismarrck/Documents/Projects/cp2k/cp2k-3.0/
 CP2K| Input file name                                                  freq.inp

 GLOBAL| Force Environment number                                              1
 GLOBAL| Basis set file name                                            ./rr_pot
 GLOBAL| MM Potential file name                                     MM_POTENTIAL
 GLOBAL| Coordinate file name                                      __STD_INPUT__
 GLOBAL| Method name                                                        CP2K
 GLOBAL| Project name                                                       cp2k
 GLOBAL| Preferred FFT library                                             FFTW3
 GLOBAL| Preferred diagonalization lib.                                       SL
 GLOBAL| Run type                                           VIBRATIONAL_ANALYSIS
 GLOBAL| All-to-all communication in single precision                          F
 GLOBAL| FFTs using library dependent lengths                                  F
 GLOBAL| Global print level                                                  LOW
 GLOBAL| Total number of message passing processes                             1
 GLOBAL| Number of threads for this process                                    1
 GLOBAL| This output is from process                                           0
 GLOBAL| CPU model name : UNKNOWN

 MEMORY| system memory details [Kb]
 MEMORY|                        rank 0           min           max       average
 MEMORY| MemTotal                    0             0             0             0
 MEMORY| MemFree                     0             0             0             0
 MEMORY| Buffers                     0             0             0             0
 MEMORY| Cached                      0             0             0             0
 MEMORY| Slab                        0             0             0             0
 MEMORY| SReclaimable                0             0             0             0
 MEMORY| MemLikelyFree               0             0             0             0


 GENERATE|  Preliminary Number of Bonds generated:                             0
 GENERATE|  Achieved consistency in connectivity generation.

 *******************************************************************************
 *******************************************************************************
 **                                                                           **
 **     #####                         ##              ##                      **
 **    ##   ##            ##          ##              ##                      **
 **   ##     ##                       ##            ######                    **
 **   ##     ##  ##   ##  ##   #####  ##  ##   ####   ##    #####    #####    **
 **   ##     ##  ##   ##  ##  ##      ## ##   ##      ##   ##   ##  ##   ##   **
 **   ##  ## ##  ##   ##  ##  ##      ####     ###    ##   ######   ######    **
 **    ##  ###   ##   ##  ##  ##      ## ##      ##   ##   ##       ##        **
 **     #######   #####   ##   #####  ##  ##  ####    ##    #####   ##        **
 **           ##                                                    ##        **
 **                                                                           **
 **                                                ... make the atoms dance   **
 **                                                                           **
 **            Copyright (C) by CP2K Developers Group (2000 - 2015)           **
 **                                                                           **
 *******************************************************************************


 MODULE QUICKSTEP:  ATOMIC COORDINATES IN angstrom

  Atom  Kind  Element       X           Y           Z          Z(eff)       Mass

       1     1 C    6    8.547363    2.211441   -0.000000      4.00      12.0107
       2     2 H    1    9.547680    2.697061    0.000000      1.00       1.0079
       3     2 H    1    7.673104    2.897649   -0.000000      1.00       1.0079
       4     3 O    8    8.416989    1.000386   -0.000000      6.00      15.9994




 SCF PARAMETERS         Density guess:                                   RESTART
                        --------------------------------------------------------
                        max_scf:                                             200
                        max_scf_history:                                       0
                        max_diis:                                              4
                        --------------------------------------------------------
                        eps_scf:                                        1.00E-05
                        eps_scf_history:                                0.00E+00
                        eps_diis:                                       1.00E-01
                        eps_eigval:                                     1.00E-05
                        --------------------------------------------------------
                        level_shift [a.u.]:                                 0.00
                        --------------------------------------------------------
                        Outer loop SCF in use
                        No variables optimised in outer loop
                        eps_scf                                         1.00E-05
                        max_scf                                                4
                        No outer loop optimization
                        step_size                                       5.00E-01

 *******************************************************************************
 *******************************************************************************
 **                                                                           **
 **  #  #   #    #                  #     #                      ##           **
 **  #  #        ###   # ##   ###  ####         ##   # #    ###   #           **
 **  #  #   #    #  #  ##    #  #   #     #    #  #  ## #  #  #   #           **
 **   ##    #    #  #  #     # ##   #     #    #  #  #  #  # ##   #           **
 **   ##    #    ###   #      # #    ##   #     ##   #  #   # #  ###          **
 **                                                                           **
 **   ##               ##                 #                                   **
 **  #  #  # #    ###   #    #  #   ###         ###                           **
 **  #  #  ## #  #  #   #    #  #  ##     #    ##                             **
 **  ####  #  #  # ##   #     ###    ##   #      ##  N. Replicas:           1 **
 **  #  #  #  #   # #  ###      #  ###    #    ###   N. Procs/Rep:          1 **
 **                           ##                                              **
 **                                       T. Laino  and F. Schiffmann         **
 **                                       2008 - 2015                         **
 *******************************************************************************
 *******************************************************************************

 REPLICA| layout of the replica grid, number of groups                         1
 REPLICA| layout of the replica grid, size of each group                       1
 REPLICA| MPI process to grid (group,rank) correspondence:
  (   0 :    0,   0)

 VIB|                        NORMAL MODES - CARTESIAN DISPLACEMENTS
 VIB|
 VIB|                         1                    2                    3
 VIB|Frequency (cm^-1)  1161.556050          1232.783867          1499.356231
 VIB|Intensities           0.000000             0.000000             0.000000
 VIB|Red.Masses (a.u.)     1.365252             1.336405             1.125671
 VIB|Frc consts (a.u.)     0.006363             0.007902             0.014565
  ATOM  EL             X     Y     Z        X     Y     Z        X     Y     Z
     1  C            -0.00  0.00  0.17     0.15 -0.01  0.00     0.00 -0.01 -0.00
     2  H             0.00 -0.00 -0.70    -0.18  0.68 -0.00     0.28 -0.64  0.00
     3  H             0.00  0.00 -0.70    -0.31 -0.61 -0.00    -0.41 -0.58  0.00
     4  O             0.00  0.00 -0.04    -0.08  0.01 -0.00     0.01  0.09  0.00


 VIB|                         4                    5                    6
 VIB|Frequency (cm^-1)  1760.159638          2900.155210          2990.366996
 VIB|Intensities           0.000000             0.000000             0.000000
 VIB|Red.Masses (a.u.)     6.498249             1.047657             1.122585
 VIB|Frc consts (a.u.)     0.159690             0.189748             0.229821
  ATOM  EL             X     Y     Z        X     Y     Z        X     Y     Z
     1  C            -0.06 -0.55 -0.00     0.01  0.06 -0.00    -0.10  0.01  0.00
     2  H            -0.44  0.30  0.00    -0.66 -0.29  0.00     0.62  0.29 -0.00
     3  H             0.49  0.19  0.00     0.55 -0.40  0.00     0.57 -0.44 -0.00
     4  O             0.04  0.38  0.00    -0.00 -0.00  0.00     0.00 -0.00 -0.00



 -------------------------------------------------------------------------------
 -                                                                             -
 -                                DBCSR STATISTICS                             -
 -                                                                             -
 -------------------------------------------------------------------------------
 COUNTER                                    TOTAL       BLAS       SMM       ACC
 flops    5 x    5 x    6                  734400     100.0%      0.0%      0.0%
 flops    6 x    6 x    6                  878688     100.0%      0.0%      0.0%
 flops   13 x    5 x    6                 1272960     100.0%      0.0%      0.0%
 flops    5 x   13 x    6                 1272960     100.0%      0.0%      0.0%
 flops    5 x    6 x    5                 1846800     100.0%      0.0%      0.0%
 flops    6 x    6 x   36                 4100544     100.0%      0.0%      0.0%
 flops   13 x    6 x    5                 4801680     100.0%      0.0%      0.0%
 flops    5 x    6 x   13                 4801680     100.0%      0.0%      0.0%
 flops   13 x   13 x    6                 4964544     100.0%      0.0%      0.0%
 flops   36 x    6 x    6                 5956416     100.0%      0.0%      0.0%
 flops   36 x    6 x   36                10015488     100.0%      0.0%      0.0%
 flops   13 x    6 x   13                12484368     100.0%      0.0%      0.0%
 flops total                             53130528     100.0%      0.0%      0.0%
 flops max/rank                          53130528     100.0%      0.0%      0.0%
 matmuls inhomo. stacks                         0       0.0%      0.0%      0.0%
 matmuls total                              39342     100.0%      0.0%      0.0%
 number of processed stacks                 15978     100.0%      0.0%      0.0%
 average stack size                                     2.5       0.0       0.0
 marketing flops                    57.705696E+06
 -------------------------------------------------------------------------------
 max memory usage/rank               0.000000E+00
 # max total images/rank                        1
 # MPI messages exchanged                       0
 # MPI messages filtered                        0
 MPI messages size (elements):
  total size                         0.000000E+00
  min size                           0.000000E+00
  max size                           0.000000E+00
  average size                       0.000000E+00
 MPI breakdown and total messages size (bytes):
             size <=      128                   0                        0
       128 < size <=     8192                   0                        0
      8192 < size <=    32768                   0                        0
     32768 < size <=   131072                   0                        0
    131072 < size <=  4194304                   0                        0
   4194304 < size <= 16777216                   0                        0
  16777216 < size                               0                        0
 -------------------------------------------------------------------------------

 MEMORY| Estimated peak process memory [MiB]                                   0

 -------------------------------------------------------------------------------
 -                                                                             -
 -                           R E F E R E N C E S                               -
 -                                                                             -
 -------------------------------------------------------------------------------

 CP2K version 3.0, the CP2K developers group (2015).
 CP2K is freely available from https://www.cp2k.org/ .

 Borstnik, U; VandeVondele, J; Weber, V; Hutter, J.
 PARALLEL COMPUTING, 40 (5-6), 47-58 (2014).
 Sparse matrix multiplication: The distributed block-compressed sparse
 row library.
 http://dx.doi.org/10.1016/j.parco.2014.03.012


 Hutter, J; Iannuzzi, M; Schiffmann, F; VandeVondele, J.
 WILEY INTERDISCIPLINARY REVIEWS-COMPUTATIONAL MOLECULAR SCIENCE, 4 (1), 15-25 (2014).
 CP2K: atomistic simulations of condensed matter systems.
 http://dx.doi.org/10.1002/wcms.1159


 VandeVondele, J; Hutter, J.
 JOURNAL OF CHEMICAL PHYSICS, 127 (11), 114105 (2007).
 Gaussian basis sets for accurate calculations on molecular systems in
 gas and condensed phases.
 http://dx.doi.org/10.1063/1.2770708


 Krack, M.
 THEORETICAL CHEMISTRY ACCOUNTS, 114 (1-3), 145-152 (2005).
 Pseudopotentials for H to Kr optimized for gradient-corrected
 exchange-correlation functionals.
 http://dx.doi.org/10.1007/s00214-005-0655-y


 VandeVondele, J; Krack, M; Mohamed, F; Parrinello, M; Chassaing, T;
 Hutter, J. COMPUTER PHYSICS COMMUNICATIONS, 167 (2), 103-128 (2005).
 QUICKSTEP: Fast and accurate density functional calculations using a
 mixed Gaussian and plane waves approach.
 http://dx.doi.org/10.1016/j.cpc.2004.12.014


 Frigo, M; Johnson, SG.
 PROCEEDINGS OF THE IEEE, 93 (2), 216-231 (2005).
 The design and implementation of FFTW3.
 http://dx.doi.org/10.1109/JPROC.2004.840301


 Kolafa, J.
 JOURNAL OF COMPUTATIONAL CHEMISTRY, 25 (3), 335-342 (2004).
 Time-reversible always stable predictor-corrector method for molecular dynamics of polarizable molecules.
 http://dx.doi.org/10.1002/jcc.10385


 VandeVondele, J; Hutter, J.
 JOURNAL OF CHEMICAL PHYSICS, 118 (10), 4365-4369 (2003).
 An efficient orbital transformation method for electronic structure
 calculations.
 http://dx.doi.org/10.1063/1.1543154


 Hartwigsen, C; Goedecker, S; Hutter, J.
 PHYSICAL REVIEW B, 58 (7), 3641-3662 (1998).
 Relativistic separable dual-space Gaussian pseudopotentials from H to Rn.
 http://dx.doi.org/10.1103/PhysRevB.58.3641


 Lippert, G; Hutter, J; Parrinello, M.
 MOLECULAR PHYSICS, 92 (3), 477-487 (1997).
 A hybrid Gaussian and plane wave density functional scheme.
 http://dx.doi.org/10.1080/002689797170220


 Perdew, JP; Burke, K; Ernzerhof, M.
 PHYSICAL REVIEW LETTERS, 77 (18), 3865-3868 (1996).
 Generalized gradient approximation made simple.
 http://dx.doi.org/10.1103/PhysRevLett.77.3865


 Goedecker, S; Teter, M; Hutter, J.
 PHYSICAL REVIEW B, 54 (3), 1703-1710 (1996).
 Separable dual-space Gaussian pseudopotentials.
 http://dx.doi.org/10.1103/PhysRevB.54.1703


 -------------------------------------------------------------------------------
 -                                                                             -
 -                                T I M I N G                                  -
 -                                                                             -
 -------------------------------------------------------------------------------
 SUBROUTINE                       CALLS  ASD         SELF TIME        TOTAL TIME
                                MAXIMUM       AVERAGE  MAXIMUM  AVERAGE  MAXIMUM
 CP2K                                 1  1.0    0.020    0.020  482.788  482.788
 vb_anal                              1  2.0  481.814  481.814  482.327  482.327
 -------------------------------------------------------------------------------

 The number of warnings for this run is : 1

 -------------------------------------------------------------------------------
  **** **** ******  **  PROGRAM ENDED AT                 2016-09-29 20:56:12.284
 ***** ** ***  *** **   PROGRAM RAN ON                    Xins-MacBook-Pro.local
 **    ****   ******    PROGRAM RAN BY                                 bismarrck
 ***** **    ** ** **   PROGRAM PROCESS ID                                 41179
  **** **  *******  **  PROGRAM STOPPED IN   /Users/bismarrck/Desktop/test1/freq