 Entering Gaussian System, Link 0=g09
 Input=qst3-h-o-add5.com
 Output=qst3-h-o-add5.log
 Initial command:
 /home/scicons/Gaussian09.D01/l1.exe "/tmp/Gau-2269.inp" -scrdir="/tmp/"
 Entering Link 1 = /home/scicons/Gaussian09.D01/l1.exe PID=      2270.
  
 Copyright (c) 1988,1990,1992,1993,1995,1998,2003,2009,2013,
            Gaussian, Inc.  All Rights Reserved.
  
 This is part of the Gaussian(R) 09 program.  It is based on
 the Gaussian(R) 03 system (copyright 2003, Gaussian, Inc.),
 the Gaussian(R) 98 system (copyright 1998, Gaussian, Inc.),
 the Gaussian(R) 94 system (copyright 1995, Gaussian, Inc.),
 the Gaussian 92(TM) system (copyright 1992, Gaussian, Inc.),
 the Gaussian 90(TM) system (copyright 1990, Gaussian, Inc.),
 the Gaussian 88(TM) system (copyright 1988, Gaussian, Inc.),
 the Gaussian 86(TM) system (copyright 1986, Carnegie Mellon
 University), and the Gaussian 82(TM) system (copyright 1983,
 Carnegie Mellon University). Gaussian is a federally registered
 trademark of Gaussian, Inc.
  
 This software contains proprietary and confidential information,
 including trade secrets, belonging to Gaussian, Inc.
  
 This software is provided under written license and may be
 used, copied, transmitted, or stored only in accord with that
 written license.
  
 The following legend is applicable only to US Government
 contracts under FAR:
  
                    RESTRICTED RIGHTS LEGEND
  
 Use, reproduction and disclosure by the US Government is
 subject to restrictions as set forth in subparagraphs (a)
 and (c) of the Commercial Computer Software - Restricted
 Rights clause in FAR 52.227-19.
  
 Gaussian, Inc.
 340 Quinnipiac St., Bldg. 40, Wallingford CT 06492
  
  
 ---------------------------------------------------------------
 Warning -- This program may not be used in any manner that
 competes with the business of Gaussian, Inc. or will provide
 assistance to any competitor of Gaussian, Inc.  The licensee
 of this program is prohibited from giving any competitor of
 Gaussian, Inc. access to this program.  By using this program,
 the user acknowledges that Gaussian, Inc. is engaged in the
 business of creating and licensing software in the field of
 computational chemistry and represents and warrants to the
 licensee that it is not a competitor of Gaussian, Inc. and that
 it will not use this program in any manner prohibited above.
 ---------------------------------------------------------------
  

 Cite this work as:
 Gaussian 09, Revision D.01,
 M. J. Frisch, G. W. Trucks, H. B. Schlegel, G. E. Scuseria, 
 M. A. Robb, J. R. Cheeseman, G. Scalmani, V. Barone, B. Mennucci, 
 G. A. Petersson, H. Nakatsuji, M. Caricato, X. Li, H. P. Hratchian, 
 A. F. Izmaylov, J. Bloino, G. Zheng, J. L. Sonnenberg, M. Hada, 
 M. Ehara, K. Toyota, R. Fukuda, J. Hasegawa, M. Ishida, T. Nakajima, 
 Y. Honda, O. Kitao, H. Nakai, T. Vreven, J. A. Montgomery, Jr., 
 J. E. Peralta, F. Ogliaro, M. Bearpark, J. J. Heyd, E. Brothers, 
 K. N. Kudin, V. N. Staroverov, T. Keith, R. Kobayashi, J. Normand, 
 K. Raghavachari, A. Rendell, J. C. Burant, S. S. Iyengar, J. Tomasi, 
 M. Cossi, N. Rega, J. M. Millam, M. Klene, J. E. Knox, J. B. Cross, 
 V. Bakken, C. Adamo, J. Jaramillo, R. Gomperts, R. E. Stratmann, 
 O. Yazyev, A. J. Austin, R. Cammi, C. Pomelli, J. W. Ochterski, 
 R. L. Martin, K. Morokuma, V. G. Zakrzewski, G. A. Voth, 
 P. Salvador, J. J. Dannenberg, S. Dapprich, A. D. Daniels, 
 O. Farkas, J. B. Foresman, J. V. Ortiz, J. Cioslowski, 
 and D. J. Fox, Gaussian, Inc., Wallingford CT, 2013.
 
 ******************************************
 Gaussian 09:  ES64L-G09RevD.01 24-Apr-2013
                24-Oct-2017 
 ******************************************
 %mem=400MW
 %chk=qst3-h-o-add5.chk
 %nproc=8
 Will use up to    8 processors via shared memory.
 -----------------------------------------------------------------
 #p m062x/6-311++g(3df,3pd) opt=(qst2,maxcyc=500) iop(5/13=1) freq
 -----------------------------------------------------------------
 1/5=1,6=500,14=-1,18=20,26=3,27=202,38=1/1,3;
 2/9=110,12=2,17=6,18=5,40=1/2;
 3/5=4,6=6,7=1616,11=2,16=1,25=1,30=1,71=1,74=-55/1,2,3;
 4//1;
 5/5=2,13=1,38=5/2;
 6/7=2,8=2,9=2,10=2,28=1/1;
 7//1,2,3,16;
 1/5=1,6=500,14=-1,18=20,26=3,27=202/3(2);
 2/9=110/2;
 99//99;
 2/9=110/2;
 3/5=4,6=6,7=1616,11=2,16=1,25=1,30=1,71=1,74=-55/1,2,3;
 4/5=5,16=3,69=1/1;
 5/5=2,13=1,38=5/2;
 7//1,2,3,16;
 1/5=1,6=500,14=-1,18=20,26=3,27=202/3(-5);
 2/9=110/2;
 6/7=2,8=2,9=2,10=2,19=2,28=1/1;
 99/9=1/99;
 Leave Link    1 at Tue Oct 24 22:34:22 2017, MaxMem=   419430400 cpu:         0.3
 (Enter /home/scicons/Gaussian09.D01/l101.exe)
 --
 **
 --
 Symbolic Z-matrix:
 Charge = -1 Multiplicity = 1
 S                    -0.70788  -0.30268  -0.3222 
 O                     0.13625   1.06866   0.32867 
 O                    -0.9972   -1.21846   0.75727 
 H                    -1.98535   1.47531  -0.62589 
 O                    -2.12026   0.68712  -0.09114 
 O                     2.131     1.08195  -0.09842 
 O                     3.36045   0.42638  -0.18232 
 O                     3.10877  -0.56144  -1.11837 
 
 Add virtual bond connecting atoms O6         and O2         Dist= 3.86D+00.
 --
 **
 --
 Symbolic Z-matrix:
 Charge = -1 Multiplicity = 1
 S                    -0.70788  -0.30268  -0.3222 
 O                     0.13625   1.06866   0.32867 
 O                    -0.9972   -1.21846   0.75727 
 H                    -1.98535   1.47531  -0.62589 
 O                    -2.12026   0.68712  -0.09114 
 O                     1.5103    1.07782   0.03448 
 O                     2.25867  -0.08999   0.1911 
 O                     1.65233  -0.95525  -0.70276 
 
 Iteration  1 RMS(Cart)=  0.17133282 RMS(Int)=  0.09223181
 Iteration  2 RMS(Cart)=  0.10681883 RMS(Int)=  0.04592712
 Iteration  3 RMS(Cart)=  0.06122229 RMS(Int)=  0.00119727
 Iteration  4 RMS(Cart)=  0.00161663 RMS(Int)=  0.00000002
 Iteration  5 RMS(Cart)=  0.00000002 RMS(Int)=  0.00000000
   Var     Old X     New X   DQ Goal   DQ Act.  Rel. Err.   Overall
     1    3.2822    3.2822    0.0000    0.0000
     2    2.7304    2.7304    0.0000    0.0000
     3    3.2883    3.2883    0.0000    0.0000
     4    3.8550    3.2553   -0.5998   -0.5998    1.0000
     5    1.8179    1.8179    0.0000    0.0000
     6    2.6377    2.6377    0.0000    0.0000
     7    2.6153    2.6153    0.0000    0.0000
     8    1.8942    1.8942    0.0000    0.0000
     9    1.4662    1.4662    0.0000    0.0000
    10    1.6698    1.6698    0.0000    0.0000
    11    1.9844    1.9844    0.0000    0.0000
    12    1.8529    1.8529    0.0000    0.0000
    13    2.6276    2.3583   -0.2693   -0.2693    1.0000
    14    1.7882    1.7882    0.0000    0.0000
    15    1.8373    1.8373    0.0000    0.0000
    16   -2.8055   -2.8055    0.0000    0.0000
    17    1.0471    1.0471    0.0000    0.0000
    18    2.9338    2.9338    0.0000    0.0000
    19   -0.7951   -0.7951    0.0000    0.0000
    20    1.0743    1.0743    0.0000    0.0000
 NAtoms=      8 NQM=        8 NQMF=       0 NMMI=      0 NMMIF=      0
                NMic=       0 NMicF=      0.
                    Isotopes and Nuclear Properties:
 (Nuclear quadrupole moments (NQMom) in fm**2, nuclear magnetic moments (NMagM)
  in nuclear magnetons)

  Atom         1           2           3           4           5           6           7           8
 IAtWgt=          32          16          16           1          16          16          16          16
 AtmWgt=  31.9720718  15.9949146  15.9949146   1.0078250  15.9949146  15.9949146  15.9949146  15.9949146
 NucSpn=           0           0           0           1           0           0           0           0
 AtZEff=   0.0000000   0.0000000   0.0000000   0.0000000   0.0000000   0.0000000   0.0000000   0.0000000
 NQMom=    0.0000000   0.0000000   0.0000000   0.0000000   0.0000000   0.0000000   0.0000000   0.0000000
 NMagM=    0.0000000   0.0000000   0.0000000   2.7928460   0.0000000   0.0000000   0.0000000   0.0000000
 AtZNuc=  16.0000000   8.0000000   8.0000000   1.0000000   8.0000000   8.0000000   8.0000000   8.0000000
 Leave Link  101 at Tue Oct 24 22:34:26 2017, MaxMem=   419430400 cpu:        16.2
 (Enter /home/scicons/Gaussian09.D01/l103.exe)

 GradGradGradGradGradGradGradGradGradGradGradGradGradGradGradGradGradGrad
 Berny optimization.
 Initialization pass.
                           ----------------------------
                           !    Initial Parameters    !
                           ! (Angstroms and Degrees)  !
 --------------------------                            --------------------------
 ! Name  Definition        TS        Reactant  Product Derivative Info.         !
 --------------------------------------------------------------------------------
 ! R1    R(1,2)             1.7369    1.7369    1.7369 estimate D2E/DX2         !
 ! R2    R(1,3)             1.4449    1.4449    1.4449 estimate D2E/DX2         !
 ! R3    R(1,5)             1.7401    1.7401    1.7401 estimate D2E/DX2         !
 ! R4    R(2,6)             1.7226    2.04      1.4052 estimate D2E/DX2         !
 ! R5    R(4,5)             0.962     0.962     0.962  estimate D2E/DX2         !
 ! R6    R(6,7)             1.3958    1.3958    1.3958 estimate D2E/DX2         !
 ! R7    R(7,8)             1.3839    1.3839    1.3839 estimate D2E/DX2         !
 ! A1    A(2,1,3)         108.5288  108.5288  108.5288 estimate D2E/DX2         !
 ! A2    A(2,1,5)          84.0082   84.0082   84.0082 estimate D2E/DX2         !
 ! A3    A(3,1,5)          95.6699   95.6699   95.6699 estimate D2E/DX2         !
 ! A4    A(1,2,6)         113.6979  113.6979  113.6979 estimate D2E/DX2         !
 ! A5    A(1,5,4)         106.1656  106.1656  106.1656 estimate D2E/DX2         !
 ! A6    A(2,6,7)         135.12    150.55    119.69   estimate D2E/DX2         !
 ! A7    A(6,7,8)         102.4572  102.4572  102.4572 estimate D2E/DX2         !
 ! D1    D(3,1,2,6)       105.2671  105.2671  105.2671 estimate D2E/DX2         !
 ! D2    D(5,1,2,6)      -160.7422 -160.7422 -160.7422 estimate D2E/DX2         !
 ! D3    D(2,1,5,4)        59.9938   59.9938   59.9938 estimate D2E/DX2         !
 ! D4    D(3,1,5,4)       168.0938  168.0938  168.0938 estimate D2E/DX2         !
 ! D5    D(1,2,6,7)       -45.5539  -45.5539  -45.5539 estimate D2E/DX2         !
 ! D6    D(2,6,7,8)        61.5505   61.5505   61.5505 estimate D2E/DX2         !
 --------------------------------------------------------------------------------
 Trust Radius=3.00D-01 FncErr=1.00D-07 GrdErr=1.00D-06
 Number of steps in this run=    100 maximum allowed number of steps=    100.
 Search for a saddle point of order  1.
 GradGradGradGradGradGradGradGradGradGradGradGradGradGradGradGradGradGrad

 Leave Link  103 at Tue Oct 24 22:34:26 2017, MaxMem=   419430400 cpu:         0.0
 (Enter /home/scicons/Gaussian09.D01/l202.exe)
                          Input orientation:                          
 ---------------------------------------------------------------------
 Center     Atomic      Atomic             Coordinates (Angstroms)
 Number     Number       Type             X           Y           Z
 ---------------------------------------------------------------------
      1         16           0       -0.491500   -0.272212   -0.382849
      2          8           0        0.293781    1.121838    0.292961
      3          8           0       -0.715372   -1.230862    0.674733
      4          1           0       -1.862009    1.446220   -0.615375
      5          8           0       -1.947665    0.637783   -0.101094
      6          8           0        1.968899    1.228574   -0.094305
      7          8           0        3.041609    0.335484   -0.099953
      8          8           0        2.638035   -0.609979   -1.026525
 ---------------------------------------------------------------------
                    Distance matrix (angstroms):
                    1          2          3          4          5
     1  S    0.000000
     2  O    1.736882   0.000000
     3  O    1.444856   2.588308   0.000000
     4  H    2.210287   2.361721   3.185267   0.000000
     5  O    1.740084   2.326730   2.369026   0.961974   0.000000
     6  O    2.896408   1.722611   3.720961   3.872304   3.960878
     7  O    3.596135   2.885012   4.143487   5.054192   4.998424
     8  O    3.212849   3.199337   3.811182   4.964614   4.841692
                    6          7          8
     6  O    0.000000
     7  O    1.395833   0.000000
     8  O    2.167268   1.383945   0.000000
 Stoichiometry    HO6S(1-)
 Framework group  C1[X(HO6S)]
 Deg. of freedom    18
 Full point group                 C1      NOp   1
 Largest Abelian subgroup         C1      NOp   1
 Largest concise Abelian subgroup C1      NOp   1
                         Standard orientation:                         
 ---------------------------------------------------------------------
 Center     Atomic      Atomic             Coordinates (Angstroms)
 Number     Number       Type             X           Y           Z
 ---------------------------------------------------------------------
      1         16           0        0.985855    0.373500   -0.308971
      2          8           0        0.188483   -1.026707    0.339396
      3          8           0        1.376986    1.228366    0.788219
      4          1           0        2.214781   -1.391851   -0.817547
      5          8           0        2.403387   -0.634287   -0.255481
      6          8           0       -1.520970   -1.010141    0.127545
      7          8           0       -2.530489   -0.062697    0.305230
      8          8           0       -2.165955    0.932447   -0.584774
 ---------------------------------------------------------------------
 Rotational constants (GHZ):      4.6863113      1.2713846      1.1037415
 Leave Link  202 at Tue Oct 24 22:34:26 2017, MaxMem=   419430400 cpu:         0.0
 (Enter /home/scicons/Gaussian09.D01/l301.exe)
 Standard basis: 6-311++G(3df,3pd) (5D, 7F)
 Ernie: Thresh=  0.10000D-02 Tol=  0.10000D-05 Strict=F.
 There are   342 symmetry adapted cartesian basis functions of A   symmetry.
 There are   299 symmetry adapted basis functions of A   symmetry.
   299 basis functions,   441 primitive gaussians,   342 cartesian basis functions
    33 alpha electrons       33 beta electrons
       nuclear repulsion energy       399.0099348429 Hartrees.
 IExCor= 4336 DFT=T Ex+Corr=M062X ExCW=0 ScaHFX=  0.540000
 ScaDFX=  1.000000  1.000000  1.000000  1.000000 ScalE2=  1.000000  1.000000
 IRadAn=      0 IRanWt=     -1 IRanGd=            0 ICorTp=0 IEmpDi=  4
 NAtoms=    8 NActive=    8 NUniq=    8 SFac= 1.00D+00 NAtFMM=   60 NAOKFM=F Big=F
 Integral buffers will be    131072 words long.
 Raffenetti 2 integral format.
 Two-electron integral symmetry is turned on.
 Leave Link  301 at Tue Oct 24 22:34:26 2017, MaxMem=   419430400 cpu:         0.2
 (Enter /home/scicons/Gaussian09.D01/l302.exe)
 NPDir=0 NMtPBC=     1 NCelOv=     1 NCel=       1 NClECP=     1 NCelD=      1
         NCelK=      1 NCelE2=     1 NClLst=     1 CellRange=     0.0.
 One-electron integrals computed using PRISM.
 NBasis=   299 RedAO= T EigKep=  3.58D-04  NBF=   299
 NBsUse=   299 1.00D-06 EigRej= -1.00D+00 NBFU=   299
 Precomputing XC quadrature grid using
 IXCGrd= 4 IRadAn=           0 IRanWt=          -1 IRanGd=           0 AccXCQ= 0.00D+00.
 Generated NRdTot=       0 NPtTot=           0 NUsed=           0 NTot=          32
 NSgBfM=   336   336   336   336   336 MxSgAt=     8 MxSgA2=     8.
 Leave Link  302 at Tue Oct 24 22:34:26 2017, MaxMem=   419430400 cpu:         2.3
 (Enter /home/scicons/Gaussian09.D01/l303.exe)
 DipDrv:  MaxL=1.
 Leave Link  303 at Tue Oct 24 22:34:27 2017, MaxMem=   419430400 cpu:         1.0
 (Enter /home/scicons/Gaussian09.D01/l401.exe)
 ExpMin= 3.60D-02 ExpMax= 9.34D+04 ExpMxC= 3.17D+03 IAcc=3 IRadAn=         5 AccDes= 0.00D+00
 Harris functional with IExCor= 1009 and IRadAn=       5 diagonalized for initial guess.
 HarFok:  IExCor= 1009 AccDes= 0.00D+00 IRadAn=         5 IDoV= 1 UseB2=F ITyADJ=14
 ICtDFT=  3500011 ScaDFX=  1.000000  1.000000  1.000000  1.000000
 FoFCou: FMM=F IPFlag=           0 FMFlag=      100000 FMFlg1=           0
         NFxFlg=           0 DoJE=T BraDBF=F KetDBF=T FulRan=T
         wScrn=  0.000000 ICntrl=     500 IOpCl=  0 I1Cent=   200000004 NGrid=           0
         NMat0=    1 NMatS0=      1 NMatT0=    0 NMatD0=    1 NMtDS0=    0 NMtDT0=    0
 Petite list used in FoFCou.
 Harris En= -849.675421813574    
 JPrj=0 DoOrth=F DoCkMO=F.
 Leave Link  401 at Tue Oct 24 22:34:29 2017, MaxMem=   419430400 cpu:        10.9
 (Enter /home/scicons/Gaussian09.D01/l502.exe)
 Closed shell SCF:
 Using DIIS extrapolation, IDIIS=  1040.
 Integral symmetry usage will be decided dynamically.
 IVT=      362015 IEndB=      362015 NGot=   419430400 MDV=   419189916
 LenX=   419189916 LenY=   419072511
 Requested convergence on RMS density matrix=1.00D-08 within  64 cycles.
 Requested convergence on MAX density matrix=1.00D-06.
 Requested convergence on             energy=1.00D-06.
 No special actions if energy rises.
 Fock matrices will be formed incrementally for  20 cycles.

 Cycle   1  Pass 1  IDiag  1:
 FoFJK:  IHMeth= 1 ICntrl=       0 DoSepK=F KAlg= 0 I1Cent=   0 FoldK=F
 IRaf= 890000000 NMat=   1 IRICut=       1 DoRegI=T DoRafI=F ISym2E= 0.
 FoFCou: FMM=F IPFlag=           0 FMFlag=      100000 FMFlg1=           0
         NFxFlg=           0 DoJE=F BraDBF=F KetDBF=F FulRan=T
         wScrn=  0.000000 ICntrl=       0 IOpCl=  0 I1Cent=           0 NGrid=           0
         NMat0=    1 NMatS0=      1 NMatT0=    0 NMatD0=    1 NMtDS0=    0 NMtDT0=    0
 Symmetry not used in FoFCou.
 E= -849.478751988163    
 DIIS: error= 2.10D-02 at cycle   1 NSaved=   1.
 NSaved= 1 IEnMin= 1 EnMin= -849.478751988163     IErMin= 1 ErrMin= 2.10D-02
 ErrMax= 2.10D-02  0.00D+00 EMaxC= 1.00D-01 BMatC= 6.11D-01 BMatP= 6.11D-01
 IDIUse=3 WtCom= 7.90D-01 WtEn= 2.10D-01
 Coeff-Com:  0.100D+01
 Coeff-En:   0.100D+01
 Coeff:      0.100D+01
 Gap=     0.180 Goal=   None    Shift=    0.000
 GapD=    0.180 DampG=1.000 DampE=0.500 DampFc=0.5000 IDamp=-1.
 Damping current iteration by 5.00D-01
 RMSDP=3.46D-03 MaxDP=1.92D-01              OVMax= 2.42D-01

 Cycle   2  Pass 1  IDiag  1:
 RMSU=  1.73D-03    CP:  1.00D+00
 E= -849.540415730432     Delta-E=       -0.061663742269 Rises=F Damp=T
 DIIS: error= 8.31D-03 at cycle   2 NSaved=   2.
 NSaved= 2 IEnMin= 2 EnMin= -849.540415730432     IErMin= 2 ErrMin= 8.31D-03
 ErrMax= 8.31D-03  0.00D+00 EMaxC= 1.00D-01 BMatC= 1.02D-01 BMatP= 6.11D-01
 IDIUse=3 WtCom= 9.17D-01 WtEn= 8.31D-02
 Coeff-Com:  0.219D+00 0.781D+00
 Coeff-En:   0.420D+00 0.580D+00
 Coeff:      0.236D+00 0.764D+00
 Gap=     0.203 Goal=   None    Shift=    0.000
 RMSDP=9.83D-04 MaxDP=3.87D-02 DE=-6.17D-02 OVMax= 2.46D-01

 Cycle   3  Pass 1  IDiag  1:
 RMSU=  8.02D-04    CP:  1.00D+00  6.73D-01
 E= -849.801162761654     Delta-E=       -0.260747031221 Rises=F Damp=F
 DIIS: error= 8.52D-03 at cycle   3 NSaved=   3.
 NSaved= 3 IEnMin= 3 EnMin= -849.801162761654     IErMin= 2 ErrMin= 8.31D-03
 ErrMax= 8.52D-03  0.00D+00 EMaxC= 1.00D-01 BMatC= 4.37D-02 BMatP= 1.02D-01
 IDIUse=3 WtCom= 9.15D-01 WtEn= 8.52D-02
 Coeff-Com:  0.262D-01 0.382D+00 0.591D+00
 Coeff-En:   0.000D+00 0.000D+00 0.100D+01
 Coeff:      0.240D-01 0.350D+00 0.626D+00
 Gap=     0.203 Goal=   None    Shift=    0.000
 RMSDP=7.14D-04 MaxDP=3.26D-02 DE=-2.61D-01 OVMax= 1.19D-01

 Cycle   4  Pass 1  IDiag  1:
 RMSU=  5.69D-04    CP:  1.00D+00  7.38D-01  4.85D-01
 E= -849.810951310497     Delta-E=       -0.009788548843 Rises=F Damp=F
 DIIS: error= 6.39D-03 at cycle   4 NSaved=   4.
 NSaved= 4 IEnMin= 4 EnMin= -849.810951310497     IErMin= 4 ErrMin= 6.39D-03
 ErrMax= 6.39D-03  0.00D+00 EMaxC= 1.00D-01 BMatC= 3.14D-02 BMatP= 4.37D-02
 IDIUse=3 WtCom= 9.36D-01 WtEn= 6.39D-02
 Coeff-Com: -0.189D-01 0.107D+00 0.474D+00 0.439D+00
 Coeff-En:   0.000D+00 0.000D+00 0.433D+00 0.567D+00
 Coeff:     -0.177D-01 0.998D-01 0.471D+00 0.447D+00
 Gap=     0.189 Goal=   None    Shift=    0.000
 RMSDP=3.78D-04 MaxDP=1.64D-02 DE=-9.79D-03 OVMax= 5.92D-02

 Cycle   5  Pass 1  IDiag  1:
 RMSU=  1.94D-04    CP:  1.00D+00  7.39D-01  7.04D-01  5.22D-01
 E= -849.833309657552     Delta-E=       -0.022358347056 Rises=F Damp=F
 DIIS: error= 1.64D-03 at cycle   5 NSaved=   5.
 NSaved= 5 IEnMin= 5 EnMin= -849.833309657552     IErMin= 5 ErrMin= 1.64D-03
 ErrMax= 1.64D-03  0.00D+00 EMaxC= 1.00D-01 BMatC= 2.01D-03 BMatP= 3.14D-02
 IDIUse=3 WtCom= 9.84D-01 WtEn= 1.64D-02
 Coeff-Com: -0.125D-01 0.218D-01 0.230D+00 0.274D+00 0.486D+00
 Coeff-En:   0.000D+00 0.000D+00 0.000D+00 0.000D+00 0.100D+01
 Coeff:     -0.123D-01 0.215D-01 0.227D+00 0.270D+00 0.494D+00
 Gap=     0.199 Goal=   None    Shift=    0.000
 RMSDP=1.33D-04 MaxDP=5.17D-03 DE=-2.24D-02 OVMax= 2.70D-02

 Cycle   6  Pass 1  IDiag  1:
 RMSU=  9.37D-05    CP:  1.00D+00  7.37D-01  7.00D-01  6.34D-01  6.48D-01
 E= -849.834699018197     Delta-E=       -0.001389360645 Rises=F Damp=F
 DIIS: error= 7.91D-04 at cycle   6 NSaved=   6.
 NSaved= 6 IEnMin= 6 EnMin= -849.834699018197     IErMin= 6 ErrMin= 7.91D-04
 ErrMax= 7.91D-04  0.00D+00 EMaxC= 1.00D-01 BMatC= 4.71D-04 BMatP= 2.01D-03
 IDIUse=3 WtCom= 9.92D-01 WtEn= 7.91D-03
 Coeff-Com: -0.332D-02-0.606D-02 0.637D-01 0.917D-01 0.349D+00 0.505D+00
 Coeff-En:   0.000D+00 0.000D+00 0.000D+00 0.000D+00 0.167D+00 0.833D+00
 Coeff:     -0.330D-02-0.602D-02 0.632D-01 0.910D-01 0.347D+00 0.508D+00
 Gap=     0.196 Goal=   None    Shift=    0.000
 RMSDP=4.78D-05 MaxDP=1.74D-03 DE=-1.39D-03 OVMax= 6.33D-03

 Cycle   7  Pass 1  IDiag  1:
 RMSU=  3.90D-05    CP:  1.00D+00  7.39D-01  7.09D-01  6.35D-01  7.44D-01
                    CP:  7.97D-01
 E= -849.835066066627     Delta-E=       -0.000367048430 Rises=F Damp=F
 DIIS: error= 2.72D-04 at cycle   7 NSaved=   7.
 NSaved= 7 IEnMin= 7 EnMin= -849.835066066627     IErMin= 7 ErrMin= 2.72D-04
 ErrMax= 2.72D-04  0.00D+00 EMaxC= 1.00D-01 BMatC= 4.86D-05 BMatP= 4.71D-04
 IDIUse=3 WtCom= 9.97D-01 WtEn= 2.72D-03
 Coeff-Com:  0.117D-02-0.800D-02-0.111D-01-0.128D-01 0.111D+00 0.244D+00
 Coeff-Com:  0.676D+00
 Coeff-En:   0.000D+00 0.000D+00 0.000D+00 0.000D+00 0.000D+00 0.000D+00
 Coeff-En:   0.100D+01
 Coeff:      0.117D-02-0.798D-02-0.110D-01-0.128D-01 0.110D+00 0.244D+00
 Coeff:      0.677D+00
 Gap=     0.197 Goal=   None    Shift=    0.000
 RMSDP=3.15D-05 MaxDP=7.62D-04 DE=-3.67D-04 OVMax= 6.62D-03

 Cycle   8  Pass 1  IDiag  1:
 RMSU=  2.25D-05    CP:  1.00D+00  7.37D-01  7.01D-01  6.55D-01  7.86D-01
                    CP:  9.59D-01  1.08D+00
 E= -849.835134579540     Delta-E=       -0.000068512913 Rises=F Damp=F
 DIIS: error= 2.24D-04 at cycle   8 NSaved=   8.
 NSaved= 8 IEnMin= 8 EnMin= -849.835134579540     IErMin= 8 ErrMin= 2.24D-04
 ErrMax= 2.24D-04  0.00D+00 EMaxC= 1.00D-01 BMatC= 2.21D-05 BMatP= 4.86D-05
 IDIUse=3 WtCom= 9.98D-01 WtEn= 2.24D-03
 Coeff-Com:  0.119D-02-0.258D-02-0.163D-01-0.317D-01-0.209D-01-0.646D-01
 Coeff-Com:  0.350D+00 0.785D+00
 Coeff-En:   0.000D+00 0.000D+00 0.000D+00 0.000D+00 0.000D+00 0.000D+00
 Coeff-En:   0.000D+00 0.100D+01
 Coeff:      0.118D-02-0.258D-02-0.162D-01-0.316D-01-0.209D-01-0.644D-01
 Coeff:      0.349D+00 0.785D+00
 Gap=     0.197 Goal=   None    Shift=    0.000
 RMSDP=2.22D-05 MaxDP=5.11D-04 DE=-6.85D-05 OVMax= 3.98D-03

 Cycle   9  Pass 1  IDiag  1:
 RMSU=  1.02D-05    CP:  1.00D+00  7.37D-01  6.99D-01  6.67D-01  8.20D-01
                    CP:  1.06D+00  1.38D+00  1.35D+00
 E= -849.835170693764     Delta-E=       -0.000036114224 Rises=F Damp=F
 DIIS: error= 9.12D-05 at cycle   9 NSaved=   9.
 NSaved= 9 IEnMin= 9 EnMin= -849.835170693764     IErMin= 9 ErrMin= 9.12D-05
 ErrMax= 9.12D-05  0.00D+00 EMaxC= 1.00D-01 BMatC= 7.11D-06 BMatP= 2.21D-05
 IDIUse=1 WtCom= 1.00D+00 WtEn= 0.00D+00
 Coeff-Com:  0.486D-03 0.976D-03-0.530D-02-0.186D-01-0.383D-01-0.132D+00
 Coeff-Com:  0.456D-01 0.453D+00 0.694D+00
 Coeff:      0.486D-03 0.976D-03-0.530D-02-0.186D-01-0.383D-01-0.132D+00
 Coeff:      0.456D-01 0.453D+00 0.694D+00
 Gap=     0.197 Goal=   None    Shift=    0.000
 RMSDP=1.50D-05 MaxDP=3.09D-04 DE=-3.61D-05 OVMax= 2.66D-03

 Cycle  10  Pass 1  IDiag  1:
 RMSU=  5.43D-06    CP:  1.00D+00  7.38D-01  6.99D-01  6.72D-01  8.30D-01
                    CP:  1.12D+00  1.61D+00  1.72D+00  1.30D+00
 E= -849.835185839767     Delta-E=       -0.000015146002 Rises=F Damp=F
 DIIS: error= 5.69D-05 at cycle  10 NSaved=  10.
 NSaved=10 IEnMin=10 EnMin= -849.835185839767     IErMin=10 ErrMin= 5.69D-05
 ErrMax= 5.69D-05  0.00D+00 EMaxC= 1.00D-01 BMatC= 1.61D-06 BMatP= 7.11D-06
 IDIUse=1 WtCom= 1.00D+00 WtEn= 0.00D+00
 Coeff-Com: -0.165D-03 0.703D-03 0.440D-02 0.338D-02 0.367D-02-0.241D-01
 Coeff-Com: -0.929D-01-0.200D+00 0.168D+00 0.114D+01
 Coeff:     -0.165D-03 0.703D-03 0.440D-02 0.338D-02 0.367D-02-0.241D-01
 Coeff:     -0.929D-01-0.200D+00 0.168D+00 0.114D+01
 Gap=     0.197 Goal=   None    Shift=    0.000
 RMSDP=1.48D-05 MaxDP=2.56D-04 DE=-1.51D-05 OVMax= 2.96D-03

 Cycle  11  Pass 1  IDiag  1:
 RMSU=  2.54D-06    CP:  1.00D+00  7.39D-01  6.97D-01  6.78D-01  8.39D-01
                    CP:  1.17D+00  1.79D+00  2.12D+00  1.89D+00  1.48D+00
 E= -849.835192516179     Delta-E=       -0.000006676412 Rises=F Damp=F
 DIIS: error= 1.84D-05 at cycle  11 NSaved=  11.
 NSaved=11 IEnMin=11 EnMin= -849.835192516179     IErMin=11 ErrMin= 1.84D-05
 ErrMax= 1.84D-05  0.00D+00 EMaxC= 1.00D-01 BMatC= 3.63D-07 BMatP= 1.61D-06
 IDIUse=1 WtCom= 1.00D+00 WtEn= 0.00D+00
 Coeff-Com: -0.149D-03 0.121D-03 0.394D-02 0.565D-02 0.110D-01 0.150D-01
 Coeff-Com: -0.544D-01-0.203D+00-0.879D-01 0.564D+00 0.746D+00
 Coeff:     -0.149D-03 0.121D-03 0.394D-02 0.565D-02 0.110D-01 0.150D-01
 Coeff:     -0.544D-01-0.203D+00-0.879D-01 0.564D+00 0.746D+00
 Gap=     0.197 Goal=   None    Shift=    0.000
 RMSDP=5.98D-06 MaxDP=9.98D-05 DE=-6.68D-06 OVMax= 1.10D-03

 Cycle  12  Pass 1  IDiag  1:
 RMSU=  1.27D-06    CP:  1.00D+00  7.39D-01  6.96D-01  6.80D-01  8.42D-01
                    CP:  1.19D+00  1.85D+00  2.27D+00  2.16D+00  1.84D+00
                    CP:  1.15D+00
 E= -849.835193601726     Delta-E=       -0.000001085547 Rises=F Damp=F
 DIIS: error= 1.04D-05 at cycle  12 NSaved=  12.
 NSaved=12 IEnMin=12 EnMin= -849.835193601726     IErMin=12 ErrMin= 1.04D-05
 ErrMax= 1.04D-05  0.00D+00 EMaxC= 1.00D-01 BMatC= 7.95D-08 BMatP= 3.63D-07
 IDIUse=1 WtCom= 1.00D+00 WtEn= 0.00D+00
 Coeff-Com: -0.246D-04-0.177D-03 0.130D-02 0.233D-02 0.533D-02 0.147D-01
 Coeff-Com: -0.781D-02-0.643D-01-0.975D-01 0.376D-01 0.404D+00 0.704D+00
 Coeff:     -0.246D-04-0.177D-03 0.130D-02 0.233D-02 0.533D-02 0.147D-01
 Coeff:     -0.781D-02-0.643D-01-0.975D-01 0.376D-01 0.404D+00 0.704D+00
 Gap=     0.197 Goal=   None    Shift=    0.000
 RMSDP=2.46D-06 MaxDP=6.13D-05 DE=-1.09D-06 OVMax= 4.49D-04

 Cycle  13  Pass 1  IDiag  1:
 RMSU=  5.33D-07    CP:  1.00D+00  7.39D-01  6.96D-01  6.80D-01  8.42D-01
                    CP:  1.19D+00  1.88D+00  2.32D+00  2.27D+00  2.02D+00
                    CP:  1.40D+00  9.46D-01
 E= -849.835193790999     Delta-E=       -0.000000189273 Rises=F Damp=F
 DIIS: error= 2.58D-06 at cycle  13 NSaved=  13.
 NSaved=13 IEnMin=13 EnMin= -849.835193790999     IErMin=13 ErrMin= 2.58D-06
 ErrMax= 2.58D-06  0.00D+00 EMaxC= 1.00D-01 BMatC= 8.01D-09 BMatP= 7.95D-08
 IDIUse=1 WtCom= 1.00D+00 WtEn= 0.00D+00
 Coeff-Com:  0.349D-04-0.853D-04-0.334D-03-0.422D-03-0.462D-03 0.277D-02
 Coeff-Com:  0.100D-01 0.237D-01-0.152D-01-0.112D+00-0.497D-01 0.221D+00
 Coeff-Com:  0.921D+00
 Coeff:      0.349D-04-0.853D-04-0.334D-03-0.422D-03-0.462D-03 0.277D-02
 Coeff:      0.100D-01 0.237D-01-0.152D-01-0.112D+00-0.497D-01 0.221D+00
 Coeff:      0.921D+00
 Gap=     0.197 Goal=   None    Shift=    0.000
 RMSDP=9.65D-07 MaxDP=1.91D-05 DE=-1.89D-07 OVMax= 1.57D-04

 Cycle  14  Pass 1  IDiag  1:
 RMSU=  2.23D-07    CP:  1.00D+00  7.39D-01  6.96D-01  6.81D-01  8.42D-01
                    CP:  1.19D+00  1.88D+00  2.35D+00  2.30D+00  2.08D+00
                    CP:  1.54D+00  1.19D+00  1.17D+00
 E= -849.835193815541     Delta-E=       -0.000000024543 Rises=F Damp=F
 DIIS: error= 8.97D-07 at cycle  14 NSaved=  14.
 NSaved=14 IEnMin=14 EnMin= -849.835193815541     IErMin=14 ErrMin= 8.97D-07
 ErrMax= 8.97D-07  0.00D+00 EMaxC= 1.00D-01 BMatC= 6.10D-10 BMatP= 8.01D-09
 IDIUse=1 WtCom= 1.00D+00 WtEn= 0.00D+00
 Coeff-Com:  0.273D-05 0.689D-05-0.156D-03-0.293D-03-0.677D-03-0.109D-02
 Coeff-Com:  0.158D-02 0.916D-02 0.101D-01-0.209D-01-0.502D-01-0.420D-01
 Coeff-Com:  0.170D+00 0.925D+00
 Coeff:      0.273D-05 0.689D-05-0.156D-03-0.293D-03-0.677D-03-0.109D-02
 Coeff:      0.158D-02 0.916D-02 0.101D-01-0.209D-01-0.502D-01-0.420D-01
 Coeff:      0.170D+00 0.925D+00
 Gap=     0.197 Goal=   None    Shift=    0.000
 RMSDP=2.11D-07 MaxDP=6.67D-06 DE=-2.45D-08 OVMax= 4.14D-05

 Cycle  15  Pass 1  IDiag  1:
 RMSU=  7.90D-08    CP:  1.00D+00  7.39D-01  6.96D-01  6.81D-01  8.42D-01
                    CP:  1.20D+00  1.89D+00  2.35D+00  2.31D+00  2.09D+00
                    CP:  1.55D+00  1.23D+00  1.38D+00  1.25D+00
 E= -849.835193817446     Delta-E=       -0.000000001904 Rises=F Damp=F
 DIIS: error= 3.26D-07 at cycle  15 NSaved=  15.
 NSaved=15 IEnMin=15 EnMin= -849.835193817446     IErMin=15 ErrMin= 3.26D-07
 ErrMax= 3.26D-07  0.00D+00 EMaxC= 1.00D-01 BMatC= 9.82D-11 BMatP= 6.10D-10
 IDIUse=1 WtCom= 1.00D+00 WtEn= 0.00D+00
 Coeff-Com: -0.508D-05 0.100D-04 0.557D-04 0.985D-04 0.131D-03-0.304D-04
 Coeff-Com: -0.168D-02-0.441D-02 0.165D-02 0.162D-01 0.155D-01-0.284D-01
 Coeff-Com: -0.152D+00-0.745D-01 0.123D+01
 Coeff:     -0.508D-05 0.100D-04 0.557D-04 0.985D-04 0.131D-03-0.304D-04
 Coeff:     -0.168D-02-0.441D-02 0.165D-02 0.162D-01 0.155D-01-0.284D-01
 Coeff:     -0.152D+00-0.745D-01 0.123D+01
 Gap=     0.197 Goal=   None    Shift=    0.000
 RMSDP=1.02D-07 MaxDP=2.57D-06 DE=-1.90D-09 OVMax= 2.22D-05

 Cycle  16  Pass 1  IDiag  1:
 RMSU=  3.18D-08    CP:  1.00D+00  7.39D-01  6.96D-01  6.81D-01  8.42D-01
                    CP:  1.20D+00  1.89D+00  2.35D+00  2.31D+00  2.09D+00
                    CP:  1.56D+00  1.25D+00  1.45D+00  1.53D+00  1.70D+00
 E= -849.835193817922     Delta-E=       -0.000000000476 Rises=F Damp=F
 DIIS: error= 1.45D-07 at cycle  16 NSaved=  16.
 NSaved=16 IEnMin=16 EnMin= -849.835193817922     IErMin=16 ErrMin= 1.45D-07
 ErrMax= 1.45D-07  0.00D+00 EMaxC= 1.00D-01 BMatC= 1.52D-11 BMatP= 9.82D-11
 IDIUse=1 WtCom= 1.00D+00 WtEn= 0.00D+00
 Coeff-Com:  0.876D-06-0.269D-05 0.100D-04 0.227D-04 0.467D-04 0.213D-03
 Coeff-Com: -0.921D-04-0.525D-03-0.156D-02 0.117D-02 0.409D-02 0.636D-02
 Coeff-Com: -0.449D-02-0.929D-01-0.135D+00 0.122D+01
 Coeff:      0.876D-06-0.269D-05 0.100D-04 0.227D-04 0.467D-04 0.213D-03
 Coeff:     -0.921D-04-0.525D-03-0.156D-02 0.117D-02 0.409D-02 0.636D-02
 Coeff:     -0.449D-02-0.929D-01-0.135D+00 0.122D+01
 Gap=     0.197 Goal=   None    Shift=    0.000
 RMSDP=4.53D-08 MaxDP=1.17D-06 DE=-4.76D-10 OVMax= 8.78D-06

 Cycle  17  Pass 1  IDiag  1:
 RMSU=  1.32D-08    CP:  1.00D+00  7.39D-01  6.96D-01  6.81D-01  8.42D-01
                    CP:  1.20D+00  1.89D+00  2.35D+00  2.31D+00  2.09D+00
                    CP:  1.56D+00  1.25D+00  1.48D+00  1.62D+00  2.07D+00
                    CP:  1.64D+00
 E= -849.835193817987     Delta-E=       -0.000000000066 Rises=F Damp=F
 DIIS: error= 5.72D-08 at cycle  17 NSaved=  17.
 NSaved=17 IEnMin=17 EnMin= -849.835193817987     IErMin=17 ErrMin= 5.72D-08
 ErrMax= 5.72D-08  0.00D+00 EMaxC= 1.00D-01 BMatC= 2.30D-12 BMatP= 1.52D-11
 IDIUse=1 WtCom= 1.00D+00 WtEn= 0.00D+00
 Coeff-Com:  0.683D-06-0.154D-05-0.840D-05-0.146D-04-0.180D-04 0.318D-04
 Coeff-Com:  0.243D-03 0.700D-03-0.372D-03-0.242D-02-0.274D-02 0.478D-02
 Coeff-Com:  0.252D-01 0.115D-01-0.214D+00-0.469D-01 0.122D+01
 Coeff:      0.683D-06-0.154D-05-0.840D-05-0.146D-04-0.180D-04 0.318D-04
 Coeff:      0.243D-03 0.700D-03-0.372D-03-0.242D-02-0.274D-02 0.478D-02
 Coeff:      0.252D-01 0.115D-01-0.214D+00-0.469D-01 0.122D+01
 Gap=     0.197 Goal=   None    Shift=    0.000
 RMSDP=2.42D-08 MaxDP=6.16D-07 DE=-6.57D-11 OVMax= 4.17D-06

 Cycle  18  Pass 1  IDiag  1:
 RMSU=  5.37D-09    CP:  1.00D+00  7.39D-01  6.96D-01  6.81D-01  8.42D-01
                    CP:  1.20D+00  1.89D+00  2.35D+00  2.31D+00  2.09D+00
                    CP:  1.56D+00  1.25D+00  1.48D+00  1.65D+00  2.24D+00
                    CP:  2.09D+00  1.69D+00
 E= -849.835193818006     Delta-E=       -0.000000000019 Rises=F Damp=F
 DIIS: error= 2.37D-08 at cycle  18 NSaved=  18.
 NSaved=18 IEnMin=18 EnMin= -849.835193818006     IErMin=18 ErrMin= 2.37D-08
 ErrMax= 2.37D-08  0.00D+00 EMaxC= 1.00D-01 BMatC= 3.27D-13 BMatP= 2.30D-12
 IDIUse=1 WtCom= 1.00D+00 WtEn= 0.00D+00
 Coeff-Com: -0.278D-06 0.655D-06-0.134D-05-0.268D-05-0.236D-05-0.392D-04
 Coeff-Com:  0.795D-05 0.522D-04 0.263D-03-0.108D-03-0.491D-03-0.900D-03
 Coeff-Com: -0.980D-03 0.126D-01 0.381D-01-0.203D+00-0.600D-01 0.121D+01
 Coeff:     -0.278D-06 0.655D-06-0.134D-05-0.268D-05-0.236D-05-0.392D-04
 Coeff:      0.795D-05 0.522D-04 0.263D-03-0.108D-03-0.491D-03-0.900D-03
 Coeff:     -0.980D-03 0.126D-01 0.381D-01-0.203D+00-0.600D-01 0.121D+01
 Gap=     0.197 Goal=   None    Shift=    0.000
 RMSDP=9.71D-09 MaxDP=2.11D-07 DE=-1.86D-11 OVMax= 2.06D-06

 SCF Done:  E(RM062X) =  -849.835193818     A.U. after   18 cycles
            NFock= 18  Conv=0.97D-08     -V/T= 2.0026
 KE= 8.476620507341D+02 PE=-2.825616850297D+03 EE= 7.291096709018D+02
 Leave Link  502 at Tue Oct 24 22:35:42 2017, MaxMem=   419430400 cpu:       490.5
 (Enter /home/scicons/Gaussian09.D01/l601.exe)
 Copying SCF densities to generalized density rwf, IOpCl= 0 IROHF=0.

 **********************************************************************

            Population analysis using the SCF density.

 **********************************************************************

 Orbital symmetries:
       Occupied  (A) (A) (A) (A) (A) (A) (A) (A) (A) (A) (A) (A)
                 (A) (A) (A) (A) (A) (A) (A) (A) (A) (A) (A) (A)
                 (A) (A) (A) (A) (A) (A) (A) (A) (A)
       Virtual   (A) (A) (A) (A) (A) (A) (A) (A) (A) (A) (A) (A)
                 (A) (A) (A) (A) (A) (A) (A) (A) (A) (A) (A) (A)
                 (A) (A) (A) (A) (A) (A) (A) (A) (A) (A) (A) (A)
                 (A) (A) (A) (A) (A) (A) (A) (A) (A) (A) (A) (A)
                 (A) (A) (A) (A) (A) (A) (A) (A) (A) (A) (A) (A)
                 (A) (A) (A) (A) (A) (A) (A) (A) (A) (A) (A) (A)
                 (A) (A) (A) (A) (A) (A) (A) (A) (A) (A) (A) (A)
                 (A) (A) (A) (A) (A) (A) (A) (A) (A) (A) (A) (A)
                 (A) (A) (A) (A) (A) (A) (A) (A) (A) (A) (A) (A)
                 (A) (A) (A) (A) (A) (A) (A) (A) (A) (A) (A) (A)
                 (A) (A) (A) (A) (A) (A) (A) (A) (A) (A) (A) (A)
                 (A) (A) (A) (A) (A) (A) (A) (A) (A) (A) (A) (A)
                 (A) (A) (A) (A) (A) (A) (A) (A) (A) (A) (A) (A)
                 (A) (A) (A) (A) (A) (A) (A) (A) (A) (A) (A) (A)
                 (A) (A) (A) (A) (A) (A) (A) (A) (A) (A) (A) (A)
                 (A) (A) (A) (A) (A) (A) (A) (A) (A) (A) (A) (A)
                 (A) (A) (A) (A) (A) (A) (A) (A) (A) (A) (A) (A)
                 (A) (A) (A) (A) (A) (A) (A) (A) (A) (A) (A) (A)
                 (A) (A) (A) (A) (A) (A) (A) (A) (A) (A) (A) (A)
                 (A) (A) (A) (A) (A) (A) (A) (A) (A) (A) (A) (A)
                 (A) (A) (A) (A) (A) (A) (A) (A) (A) (A) (A) (A)
                 (A) (A) (A) (A) (A) (A) (A) (A) (A) (A) (A) (A)
                 (A) (A)
 The electronic state is 1-A.
 Alpha  occ. eigenvalues --  -89.92578 -19.60559 -19.55952 -19.51315 -19.51250
 Alpha  occ. eigenvalues --  -19.48181 -19.43454  -8.26838  -6.18940  -6.18817
 Alpha  occ. eigenvalues --   -6.18474  -1.13829  -1.07408  -0.98594  -0.94777
 Alpha  occ. eigenvalues --   -0.86967  -0.68860  -0.59708  -0.46643  -0.43638
 Alpha  occ. eigenvalues --   -0.39295  -0.38083  -0.37606  -0.36666  -0.34188
 Alpha  occ. eigenvalues --   -0.28722  -0.26919  -0.24309  -0.23722  -0.21169
 Alpha  occ. eigenvalues --   -0.19596  -0.14650  -0.10786
 Alpha virt. eigenvalues --    0.08916   0.10937   0.14504   0.15615   0.16742
 Alpha virt. eigenvalues --    0.19477   0.19818   0.22080   0.25419   0.27850
 Alpha virt. eigenvalues --    0.28010   0.29645   0.31217   0.31886   0.32770
 Alpha virt. eigenvalues --    0.33241   0.34775   0.36029   0.36580   0.38376
 Alpha virt. eigenvalues --    0.38835   0.39644   0.40258   0.40611   0.41752
 Alpha virt. eigenvalues --    0.42434   0.43193   0.44646   0.45390   0.46460
 Alpha virt. eigenvalues --    0.47362   0.47913   0.48643   0.50024   0.50331
 Alpha virt. eigenvalues --    0.53341   0.54614   0.56367   0.57391   0.59361
 Alpha virt. eigenvalues --    0.60622   0.62844   0.64192   0.67757   0.71466
 Alpha virt. eigenvalues --    0.76691   0.81264   0.88957   0.90936   0.93240
 Alpha virt. eigenvalues --    0.94841   0.98625   1.00563   1.04168   1.04721
 Alpha virt. eigenvalues --    1.06273   1.07409   1.09085   1.09642   1.11014
 Alpha virt. eigenvalues --    1.12821   1.13572   1.13933   1.17048   1.18059
 Alpha virt. eigenvalues --    1.18302   1.19703   1.20532   1.21008   1.22087
 Alpha virt. eigenvalues --    1.22827   1.23960   1.25760   1.26673   1.27082
 Alpha virt. eigenvalues --    1.27406   1.30332   1.31762   1.32171   1.33555
 Alpha virt. eigenvalues --    1.35543   1.37292   1.39366   1.40682   1.42379
 Alpha virt. eigenvalues --    1.45458   1.47705   1.50595   1.52401   1.53413
 Alpha virt. eigenvalues --    1.54104   1.58177   1.59052   1.60647   1.62658
 Alpha virt. eigenvalues --    1.67430   1.69016   1.75530   1.78921   1.85629
 Alpha virt. eigenvalues --    1.90956   1.94784   1.98971   2.04434   2.05662
 Alpha virt. eigenvalues --    2.07830   2.13207   2.14650   2.19595   2.21692
 Alpha virt. eigenvalues --    2.23584   2.29685   2.35339   2.36697   2.44684
 Alpha virt. eigenvalues --    2.46374   2.50454   2.56400   2.64919   2.65579
 Alpha virt. eigenvalues --    2.70883   2.98281   3.18326   3.24085   3.30439
 Alpha virt. eigenvalues --    3.32044   3.34274   3.37132   3.40182   3.48668
 Alpha virt. eigenvalues --    3.53873   3.63056   3.63973   3.65424   3.68814
 Alpha virt. eigenvalues --    3.69725   3.70700   3.72475   3.73640   3.74885
 Alpha virt. eigenvalues --    3.76612   3.78657   3.79313   3.81639   3.82693
 Alpha virt. eigenvalues --    3.84143   3.85682   3.87635   3.90052   3.90415
 Alpha virt. eigenvalues --    3.94304   3.98825   4.05535   4.17152   4.32341
 Alpha virt. eigenvalues --    4.39426   4.62084   4.68965   4.69929   4.75444
 Alpha virt. eigenvalues --    4.79352   4.80295   4.82253   4.85339   4.86194
 Alpha virt. eigenvalues --    4.88241   4.98203   4.99232   5.03717   5.07693
 Alpha virt. eigenvalues --    5.09959   5.17146   5.19596   5.20805   5.21694
 Alpha virt. eigenvalues --    5.21883   5.23705   5.24687   5.26123   5.28474
 Alpha virt. eigenvalues --    5.28874   5.30752   5.31398   5.32165   5.32787
 Alpha virt. eigenvalues --    5.33563   5.34065   5.37285   5.38084   5.40775
 Alpha virt. eigenvalues --    5.44443   5.47382   5.47946   5.51204   5.52389
 Alpha virt. eigenvalues --    5.54460   5.56858   5.61215   5.61442   5.62314
 Alpha virt. eigenvalues --    5.66322   5.69574   5.74369   5.77545   5.86945
 Alpha virt. eigenvalues --    5.88371   5.94554   5.97316   6.01709   6.04667
 Alpha virt. eigenvalues --    6.12620   6.28785   6.36526   6.41584   6.45846
 Alpha virt. eigenvalues --    6.50226   6.52654   6.55351   6.56644   6.74577
 Alpha virt. eigenvalues --    7.44386   7.59153   8.33297   8.51490   9.02887
 Alpha virt. eigenvalues --    9.47741  14.22395  14.26830  14.29104  14.31037
 Alpha virt. eigenvalues --   14.33897  14.41546  14.42895  14.43947  14.45231
 Alpha virt. eigenvalues --   14.46785  14.47654  14.47986  14.48716  14.50085
 Alpha virt. eigenvalues --   14.51736  14.53038  14.54654  14.56515  14.57613
 Alpha virt. eigenvalues --   14.63128  14.64092  14.66207  14.70365  14.71889
 Alpha virt. eigenvalues --   14.73147  14.73946  14.79325  15.21020  15.23313
 Alpha virt. eigenvalues --   15.61869  17.86854  18.01715  18.23326  50.14144
 Alpha virt. eigenvalues --   50.27859  50.30664  50.38109  50.40596  50.68849
 Alpha virt. eigenvalues --  190.17261
          Condensed to atoms (all electrons):
               1          2          3          4          5          6
     1  S   14.982586   0.128812   0.145420   0.010995   0.029354   0.028461
     2  O    0.128812   8.292926   0.003037  -0.002753  -0.057796  -0.061146
     3  O    0.145420   0.003037   8.323812   0.010940  -0.051013   0.002393
     4  H    0.010995  -0.002753   0.010940   0.357004   0.013011  -0.002064
     5  O    0.029354  -0.057796  -0.051013   0.013011   8.900783  -0.007822
     6  O    0.028461  -0.061146   0.002393  -0.002064  -0.007822   8.440546
     7  O    0.006341   0.034474   0.000480  -0.000040  -0.001270  -0.090267
     8  O    0.018136   0.043984  -0.003967  -0.000471   0.002146  -0.249349
               7          8
     1  S    0.006341   0.018136
     2  O    0.034474   0.043984
     3  O    0.000480  -0.003967
     4  H   -0.000040  -0.000471
     5  O   -0.001270   0.002146
     6  O   -0.090267  -0.249349
     7  O    8.120349  -0.043080
     8  O   -0.043080   8.768100
 Mulliken charges:
               1
     1  S    0.649894
     2  O   -0.381538
     3  O   -0.431102
     4  H    0.613377
     5  O   -0.827394
     6  O   -0.060753
     7  O   -0.026986
     8  O   -0.535499
 Sum of Mulliken charges =  -1.00000
 Mulliken charges with hydrogens summed into heavy atoms:
               1
     1  S    0.649894
     2  O   -0.381538
     3  O   -0.431102
     5  O   -0.214017
     6  O   -0.060753
     7  O   -0.026986
     8  O   -0.535499
 Electronic spatial extent (au):  <R**2>=           1002.5544
 Charge=             -1.0000 electrons
 Dipole moment (field-independent basis, Debye):
    X=              3.4437    Y=             -2.0482    Z=             -1.8159  Tot=              4.3990
 Quadrupole moment (field-independent basis, Debye-Ang):
   XX=            -69.8886   YY=            -53.6399   ZZ=            -49.8536
   XY=              0.7526   XZ=             -7.0828   YZ=              1.5402
 Traceless Quadrupole moment (field-independent basis, Debye-Ang):
   XX=            -12.0945   YY=              4.1541   ZZ=              7.9404
   XY=              0.7526   XZ=             -7.0828   YZ=              1.5402
 Octapole moment (field-independent basis, Debye-Ang**2):
  XXX=              6.5538  YYY=            -10.2425  ZZZ=              0.8119  XYY=              8.4002
  XXY=            -16.4996  XXZ=              1.3689  XZZ=              2.7661  YZZ=             -4.3060
  YYZ=             -5.4031  XYZ=             -2.7264
 Hexadecapole moment (field-independent basis, Debye-Ang**3):
 XXXX=          -1000.9297 YYYY=           -240.9500 ZZZZ=           -103.9310 XXXY=             23.6292
 XXXZ=            -24.1874 YYYX=             -7.2893 YYYZ=              3.4918 ZZZX=             -8.5295
 ZZZY=              3.2961 XXYY=           -196.4659 XXZZ=           -169.8390 YYZZ=            -55.5831
 XXYZ=             12.1595 YYXZ=            -13.6710 ZZXY=             -2.5250
 N-N= 3.990099348429D+02 E-N=-2.825616850951D+03  KE= 8.476620507341D+02
 No NMR shielding tensors so no spin-rotation constants.
 Leave Link  601 at Tue Oct 24 22:35:42 2017, MaxMem=   419430400 cpu:         2.2
 (Enter /home/scicons/Gaussian09.D01/l701.exe)
 Compute integral first derivatives.
 ... and contract with generalized density number  0.
 Leave Link  701 at Tue Oct 24 22:35:43 2017, MaxMem=   419430400 cpu:         2.5
 (Enter /home/scicons/Gaussian09.D01/l702.exe)
 L702 exits ... SP integral derivatives will be done elsewhere.
 Leave Link  702 at Tue Oct 24 22:35:43 2017, MaxMem=   419430400 cpu:         0.1
 (Enter /home/scicons/Gaussian09.D01/l703.exe)
 Compute integral first derivatives, UseDBF=F ICtDFT=           0.
 Integral derivatives from FoFJK, PRISM(SPDF).
 Calling FoFJK, ICntrl=      2127 FMM=F ISym2X=0 I1Cent= 0 IOpClX= 0 NMat=1 NMatS=1 NMatT=0.
 FoFJK:  IHMeth= 1 ICntrl=    2127 DoSepK=F KAlg= 0 I1Cent=   0 FoldK=F
 IRaf=         0 NMat=   1 IRICut=       1 DoRegI=T DoRafI=F ISym2E= 0.
 FoFCou: FMM=F IPFlag=           0 FMFlag=      100000 FMFlg1=         800
         NFxFlg=           0 DoJE=F BraDBF=F KetDBF=F FulRan=T
         wScrn=  0.000000 ICntrl=    2127 IOpCl=  0 I1Cent=           0 NGrid=           0
         NMat0=    1 NMatS0=      1 NMatT0=    0 NMatD0=    1 NMtDS0=    0 NMtDT0=    0
 Symmetry not used in FoFCou.
 Leave Link  703 at Tue Oct 24 22:35:56 2017, MaxMem=   419430400 cpu:        86.0
 (Enter /home/scicons/Gaussian09.D01/l716.exe)
 Dipole        = 1.35484495D+00-8.05819227D-01-7.14427086D-01
 ***** Axes restored to original set *****
 -------------------------------------------------------------------
 Center     Atomic                   Forces (Hartrees/Bohr)
 Number     Number              X              Y              Z
 -------------------------------------------------------------------
      1       16          -0.005592501    0.071244680    0.066467597
      2        8           0.000620279   -0.066332337   -0.016640752
      3        8           0.013449377   -0.007442594   -0.015033325
      4        1           0.000624695    0.003093047    0.000964297
      5        8           0.010457345   -0.016356387   -0.023182401
      6        8           0.044115458    0.025045758   -0.009171064
      7        8          -0.095711748   -0.014810526   -0.017938796
      8        8           0.032037095    0.005558361    0.014534443
 -------------------------------------------------------------------
 Cartesian Forces:  Max     0.095711748 RMS     0.034891356
 Leave Link  716 at Tue Oct 24 22:35:56 2017, MaxMem=   419430400 cpu:         0.1
 (Enter /home/scicons/Gaussian09.D01/l103.exe)

 GradGradGradGradGradGradGradGradGradGradGradGradGradGradGradGradGradGrad
 Berny optimization.
 FormGI is forming the generalized inverse of G from B-inverse, IUseBI=4.
 Internal  Forces:  Max     0.080792606 RMS     0.034286418
 Search for a saddle point.
 Step number   1 out of a maximum of  100
 All quantities printed in internal units (Hartrees-Bohrs-Radians)
 Second derivative matrix not updated -- first step.
 The second derivative matrix:
                          R1        R2        R3        R4        R5
           R1           0.31794
           R2           0.00000   0.98274
           R3           0.00000   0.00000   0.31468
           R4           0.00000   0.00000   0.00000   0.16963
           R5           0.00000   0.00000   0.00000   0.00000   0.55051
           R6           0.00000   0.00000   0.00000   0.00000   0.00000
           R7           0.00000   0.00000   0.00000   0.00000   0.00000
           A1           0.00000   0.00000   0.00000   0.00000   0.00000
           A2           0.00000   0.00000   0.00000   0.00000   0.00000
           A3           0.00000   0.00000   0.00000   0.00000   0.00000
           A4           0.00000   0.00000   0.00000   0.00000   0.00000
           A5           0.00000   0.00000   0.00000   0.00000   0.00000
           A6           0.00000   0.00000   0.00000   0.00000   0.00000
           A7           0.00000   0.00000   0.00000   0.00000   0.00000
           D1           0.00000   0.00000   0.00000   0.00000   0.00000
           D2           0.00000   0.00000   0.00000   0.00000   0.00000
           D3           0.00000   0.00000   0.00000   0.00000   0.00000
           D4           0.00000   0.00000   0.00000   0.00000   0.00000
           D5           0.00000   0.00000   0.00000   0.00000   0.00000
           D6           0.00000   0.00000   0.00000   0.00000   0.00000
                          R6        R7        A1        A2        A3
           R6           0.46318
           R7           0.00000   0.48388
           A1           0.00000   0.00000   0.25000
           A2           0.00000   0.00000   0.00000   0.25000
           A3           0.00000   0.00000   0.00000   0.00000   0.25000
           A4           0.00000   0.00000   0.00000   0.00000   0.00000
           A5           0.00000   0.00000   0.00000   0.00000   0.00000
           A6           0.00000   0.00000   0.00000   0.00000   0.00000
           A7           0.00000   0.00000   0.00000   0.00000   0.00000
           D1           0.00000   0.00000   0.00000   0.00000   0.00000
           D2           0.00000   0.00000   0.00000   0.00000   0.00000
           D3           0.00000   0.00000   0.00000   0.00000   0.00000
           D4           0.00000   0.00000   0.00000   0.00000   0.00000
           D5           0.00000   0.00000   0.00000   0.00000   0.00000
           D6           0.00000   0.00000   0.00000   0.00000   0.00000
                          A4        A5        A6        A7        D1
           A4           0.25000
           A5           0.00000   0.16000
           A6           0.00000   0.00000   0.25000
           A7           0.00000   0.00000   0.00000   0.25000
           D1           0.00000   0.00000   0.00000   0.00000   0.00808
           D2           0.00000   0.00000   0.00000   0.00000   0.00000
           D3           0.00000   0.00000   0.00000   0.00000   0.00000
           D4           0.00000   0.00000   0.00000   0.00000   0.00000
           D5           0.00000   0.00000   0.00000   0.00000   0.00000
           D6           0.00000   0.00000   0.00000   0.00000   0.00000
                          D2        D3        D4        D5        D6
           D2           0.00808
           D3           0.00000   0.00766
           D4           0.00000   0.00000   0.00766
           D5           0.00000   0.00000   0.00000   0.00230
           D6           0.00000   0.00000   0.00000   0.00000   0.01350
 ITU=  0
 LST/QST climbing along tangent vector
     Eigenvalues ---    0.00230   0.00766   0.00808   0.01350   0.15440
     Eigenvalues ---    0.16000   0.17172   0.18312   0.23652   0.25000
     Eigenvalues ---    0.25000   0.25000   0.31468   0.31794   0.46318
     Eigenvalues ---    0.48388   0.55051   0.982741000.000001000.00000
 Eigenvectors required to have negative eigenvalues:
                          D5        R4        A6        D2        D1
   1                    1.00000   0.00000   0.00000   0.00000   0.00000
                          D3        D4        A5        A2        R6
   1                    0.00000   0.00000   0.00000   0.00000   0.00000
 Eigenvalue     1 is   2.30D-03 should be less than     0.000000 Eigenvector:
                          D5        R4        A6        D2        D1
   1                    1.00000   0.00000   0.00000   0.00000   0.00000
                          D3        D4        A5        A2        R6
   1                    0.00000   0.00000   0.00000   0.00000   0.00000
 QST in optimization variable space.
 Eigenvectors 1 and   8 swapped, overlap=  1.0000
                        Tangent   TS vect  // Eig F  Eigenval
   1         R1         0.00000   0.00000  -0.04698   0.18312
   2         R2         0.00000   0.00000  -0.00143   0.00766
   3         R3         0.00000   0.00000   0.00168   0.00808
   4         R4        -0.91226   0.91226   0.00792   0.01350
   5         R5         0.00000   0.00000   0.01802   0.15440
   6         R6         0.00000   0.00000   0.00058   0.16000
   7         R7         0.00000   0.00000   0.02176   0.17172
   8         A1         0.00000   0.00000   0.00171   0.00230
   9         A2         0.00000   0.00000  -0.03373   0.23652
  10         A3         0.00000   0.00000   0.01144   0.25000
  11         A4         0.00000   0.00000  -0.02630   0.25000
  12         A5         0.00000   0.00000   0.02953   0.25000
  13         A6        -0.40961   0.40961  -0.00993   0.31468
  14         A7         0.00000   0.00000  -0.03026   0.31794
  15         D1         0.00000   0.00000  -0.02148   0.46318
  16         D2         0.00000   0.00000  -0.01144   0.48388
  17         D3         0.00000   0.00000   0.00108   0.55051
  18         D4         0.00000   0.00000  -0.00405   0.98274
  19         D5         0.00000   0.00000   0.000001000.00000
  20         D6         0.00000   0.00000   0.000001000.00000
 RFO step:  Lambda0=1.944660861D-01 Lambda=-2.12830824D-02.
 Linear search not attempted -- option 19 set.
 Maximum step size (   0.300) exceeded in Quadratic search.
    -- Step size scaled by   0.072
 Iteration  1 RMS(Cart)=  0.13309997 RMS(Int)=  0.01726757
 Iteration  2 RMS(Cart)=  0.02174842 RMS(Int)=  0.00002655
 Iteration  3 RMS(Cart)=  0.00003068 RMS(Int)=  0.00000902
 Iteration  4 RMS(Cart)=  0.00000000 RMS(Int)=  0.00000902
 ITry= 1 IFail=0 DXMaxC= 4.17D-01 DCOld= 1.00D+10 DXMaxT= 3.00D-01 DXLimC= 3.00D+00 Rises=F
 Variable       Old X    -DE/DX   Delta X   Delta X   Delta X     New X
                                 (Linear)    (Quad)   (Total)
    R1        3.28223  -0.06052   0.00000  -0.00645  -0.00645   3.27578
    R2        2.73038  -0.00810   0.00000  -0.00029  -0.00029   2.73009
    R3        3.28828  -0.01985   0.00000  -0.00214  -0.00214   3.28615
    R4        3.25526  -0.01522   0.00000   0.27702   0.27702   3.53228
    R5        1.81787   0.00216   0.00000   0.00014   0.00014   1.81800
    R6        2.63774  -0.04296   0.00000  -0.00321  -0.00321   2.63453
    R7        2.61528  -0.02288   0.00000  -0.00164  -0.00164   2.61364
    A1        1.89418   0.01518   0.00000   0.00278   0.00276   1.89694
    A2        1.46622   0.04840   0.00000   0.00734   0.00733   1.47355
    A3        1.66976   0.02820   0.00000   0.00632   0.00631   1.67606
    A4        1.98440  -0.02513   0.00000  -0.00335  -0.00335   1.98105
    A5        1.85294   0.00116   0.00000   0.00023   0.00023   1.85317
    A6        2.35829  -0.08079   0.00000   0.11401   0.11401   2.47230
    A7        1.78822   0.06961   0.00000   0.00928   0.00928   1.79750
    D1        1.83726  -0.01987   0.00000  -0.00151  -0.00152   1.83574
    D2       -2.80548   0.02462   0.00000   0.00736   0.00737  -2.79811
    D3        1.04709  -0.01027   0.00000  -0.00393  -0.00396   1.04313
    D4        2.93379   0.00623   0.00000  -0.00111  -0.00109   2.93270
    D5       -0.79506   0.00341   0.00000   0.00524   0.00524  -0.78983
    D6        1.07426   0.01585   0.00000   0.01648   0.01648   1.09073
         Item               Value     Threshold  Converged?
 Maximum Force            0.080793     0.000450     NO 
 RMS     Force            0.034286     0.000300     NO 
 Maximum Displacement     0.417295     0.001800     NO 
 RMS     Displacement     0.152418     0.001200     NO 
 Predicted change in Energy= 1.915788D-02
 Lowest energy point so far.  Saving SCF results.
 GradGradGradGradGradGradGradGradGradGradGradGradGradGradGradGradGradGrad

 Leave Link  103 at Tue Oct 24 22:36:01 2017, MaxMem=   419430400 cpu:        18.9
 (Enter /home/scicons/Gaussian09.D01/l202.exe)
                          Input orientation:                          
 ---------------------------------------------------------------------
 Center     Atomic      Atomic             Coordinates (Angstroms)
 Number     Number       Type             X           Y           Z
 ---------------------------------------------------------------------
      1         16           0       -0.588029   -0.281238   -0.346219
      2          8           0        0.220731    1.100882    0.317531
      3          8           0       -0.840588   -1.225070    0.717997
      4          1           0       -1.921078    1.458407   -0.626219
      5          8           0       -2.031031    0.658316   -0.103440
      6          8           0        2.043094    1.166727   -0.093052
      7          8           0        3.183823    0.366406   -0.135899
      8          8           0        2.858858   -0.587584   -1.083109
 ---------------------------------------------------------------------
                    Distance matrix (angstroms):
                    1          2          3          4          5
     1  S    0.000000
     2  O    1.733468   0.000000
     3  O    1.444701   2.587822   0.000000
     4  H    2.209475   2.367664   3.189894   0.000000
     5  O    1.738953   2.333134   2.374670   0.962046   0.000000
     6  O    3.013885   1.869203   3.833290   4.010486   4.105738
     7  O    3.832825   3.086256   4.411102   5.243367   5.223119
     8  O    3.538063   3.431097   4.163686   5.219446   5.140335
                    6          7          8
     6  O    0.000000
     7  O    1.394136   0.000000
     8  O    2.173314   1.383078   0.000000
 Stoichiometry    HO6S(1-)
 Framework group  C1[X(HO6S)]
 Deg. of freedom    18
 Full point group                 C1      NOp   1
 RotChk:  IX=0 Diff= 2.06D-02
 Largest Abelian subgroup         C1      NOp   1
 Largest concise Abelian subgroup C1      NOp   1
                         Standard orientation:                         
 ---------------------------------------------------------------------
 Center     Atomic      Atomic             Coordinates (Angstroms)
 Number     Number       Type             X           Y           Z
 ---------------------------------------------------------------------
      1         16           0        1.073474    0.379448   -0.301927
      2          8           0        0.270323   -1.010296    0.352650
      3          8           0        1.499911    1.224444    0.789538
      4          1           0        2.265307   -1.394315   -0.863245
      5          8           0        2.479715   -0.643510   -0.301236
      6          8           0       -1.588060   -0.957487    0.158882
      7          8           0       -2.679277   -0.103090    0.310094
      8          8           0       -2.412724    0.905332   -0.598169
 ---------------------------------------------------------------------
 Rotational constants (GHZ):      4.7623516      1.1218494      0.9963975
 Leave Link  202 at Tue Oct 24 22:36:01 2017, MaxMem=   419430400 cpu:         0.0
 (Enter /home/scicons/Gaussian09.D01/l301.exe)
 Standard basis: 6-311++G(3df,3pd) (5D, 7F)
 Ernie: Thresh=  0.10000D-02 Tol=  0.10000D-05 Strict=F.
 There are   342 symmetry adapted cartesian basis functions of A   symmetry.
 There are   299 symmetry adapted basis functions of A   symmetry.
   299 basis functions,   441 primitive gaussians,   342 cartesian basis functions
    33 alpha electrons       33 beta electrons
       nuclear repulsion energy       389.3827125870 Hartrees.
 IExCor= 4336 DFT=T Ex+Corr=M062X ExCW=0 ScaHFX=  0.540000
 ScaDFX=  1.000000  1.000000  1.000000  1.000000 ScalE2=  1.000000  1.000000
 IRadAn=      0 IRanWt=     -1 IRanGd=            0 ICorTp=0 IEmpDi=  4
 NAtoms=    8 NActive=    8 NUniq=    8 SFac= 1.00D+00 NAtFMM=   60 NAOKFM=F Big=F
 Integral buffers will be    131072 words long.
 Raffenetti 2 integral format.
 Two-electron integral symmetry is turned on.
 Leave Link  301 at Tue Oct 24 22:36:01 2017, MaxMem=   419430400 cpu:         0.1
 (Enter /home/scicons/Gaussian09.D01/l302.exe)
 NPDir=0 NMtPBC=     1 NCelOv=     1 NCel=       1 NClECP=     1 NCelD=      1
         NCelK=      1 NCelE2=     1 NClLst=     1 CellRange=     0.0.
 One-electron integrals computed using PRISM.
 NBasis=   299 RedAO= T EigKep=  3.78D-04  NBF=   299
 NBsUse=   299 1.00D-06 EigRej= -1.00D+00 NBFU=   299
 Precomputing XC quadrature grid using
 IXCGrd= 4 IRadAn=           0 IRanWt=          -1 IRanGd=           0 AccXCQ= 0.00D+00.
 Generated NRdTot=       0 NPtTot=           0 NUsed=           0 NTot=          32
 NSgBfM=   335   335   335   335   335 MxSgAt=     8 MxSgA2=     8.
 Leave Link  302 at Tue Oct 24 22:36:01 2017, MaxMem=   419430400 cpu:         1.9
 (Enter /home/scicons/Gaussian09.D01/l303.exe)
 DipDrv:  MaxL=1.
 Leave Link  303 at Tue Oct 24 22:36:01 2017, MaxMem=   419430400 cpu:         0.2
 (Enter /home/scicons/Gaussian09.D01/l401.exe)
 Initial guess from the checkpoint file:  "qst3-h-o-add5.chk"
 B after Tr=     0.000000    0.000000    0.000000
         Rot=    0.999983    0.001890   -0.005067   -0.002377 Ang=   0.68 deg.
 Guess basis will be translated and rotated to current coordinates.
 JPrj=2 DoOrth=T DoCkMO=T.
 Generating alternative initial guess.
 ExpMin= 3.60D-02 ExpMax= 9.34D+04 ExpMxC= 3.17D+03 IAcc=3 IRadAn=         5 AccDes= 0.00D+00
 Harris functional with IExCor= 1009 and IRadAn=       5 diagonalized for initial guess.
 HarFok:  IExCor= 1009 AccDes= 0.00D+00 IRadAn=         5 IDoV= 1 UseB2=F ITyADJ=14
 ICtDFT=  3500011 ScaDFX=  1.000000  1.000000  1.000000  1.000000
 FoFCou: FMM=F IPFlag=           0 FMFlag=      100000 FMFlg1=           0
         NFxFlg=           0 DoJE=T BraDBF=F KetDBF=T FulRan=T
         wScrn=  0.000000 ICntrl=     500 IOpCl=  0 I1Cent=   200000004 NGrid=           0
         NMat0=    1 NMatS0=      1 NMatT0=    0 NMatD0=    1 NMtDS0=    0 NMtDT0=    0
 Petite list used in FoFCou.
 Harris En= -849.686873823807    
 Leave Link  401 at Tue Oct 24 22:36:03 2017, MaxMem=   419430400 cpu:         9.0
 (Enter /home/scicons/Gaussian09.D01/l502.exe)
 Closed shell SCF:
 Using DIIS extrapolation, IDIIS=  1040.
 Integral symmetry usage will be decided dynamically.
 IVT=      362015 IEndB=      362015 NGot=   419430400 MDV=   419189916
 LenX=   419189916 LenY=   419072511
 Requested convergence on RMS density matrix=1.00D-08 within  64 cycles.
 Requested convergence on MAX density matrix=1.00D-06.
 Requested convergence on             energy=1.00D-06.
 No special actions if energy rises.
 Fock matrices will be formed incrementally for  20 cycles.

 Cycle   1  Pass 1  IDiag  1:
 FoFJK:  IHMeth= 1 ICntrl=       0 DoSepK=F KAlg= 0 I1Cent=   0 FoldK=F
 IRaf= 870000000 NMat=   1 IRICut=       1 DoRegI=T DoRafI=F ISym2E= 0.
 FoFCou: FMM=F IPFlag=           0 FMFlag=      100000 FMFlg1=           0
         NFxFlg=           0 DoJE=F BraDBF=F KetDBF=F FulRan=T
         wScrn=  0.000000 ICntrl=       0 IOpCl=  0 I1Cent=           0 NGrid=           0
         NMat0=    1 NMatS0=      1 NMatT0=    0 NMatD0=    1 NMtDS0=    0 NMtDT0=    0
 Symmetry not used in FoFCou.
 E= -849.809832233035    
 DIIS: error= 3.90D-03 at cycle   1 NSaved=   1.
 NSaved= 1 IEnMin= 1 EnMin= -849.809832233035     IErMin= 1 ErrMin= 3.90D-03
 ErrMax= 3.90D-03  0.00D+00 EMaxC= 1.00D-01 BMatC= 8.90D-03 BMatP= 8.90D-03
 IDIUse=3 WtCom= 9.61D-01 WtEn= 3.90D-02
 Coeff-Com:  0.100D+01
 Coeff-En:   0.100D+01
 Coeff:      0.100D+01
 Gap=     0.561 Goal=   None    Shift=    0.000
 GapD=    0.561 DampG=2.000 DampE=1.000 DampFc=2.0000 IDamp=-1.
 RMSDP=5.23D-04 MaxDP=1.18D-02              OVMax= 8.47D-02

 Cycle   2  Pass 1  IDiag  1:
 RMSU=  5.22D-04    CP:  9.98D-01
 E= -849.823660705835     Delta-E=       -0.013828472801 Rises=F Damp=F
 DIIS: error= 1.51D-03 at cycle   2 NSaved=   2.
 NSaved= 2 IEnMin= 2 EnMin= -849.823660705835     IErMin= 2 ErrMin= 1.51D-03
 ErrMax= 1.51D-03  0.00D+00 EMaxC= 1.00D-01 BMatC= 2.24D-03 BMatP= 8.90D-03
 IDIUse=3 WtCom= 9.85D-01 WtEn= 1.51D-02
 Coeff-Com:  0.117D+00 0.883D+00
 Coeff-En:   0.000D+00 0.100D+01
 Coeff:      0.115D+00 0.885D+00
 Gap=     0.191 Goal=   None    Shift=    0.000
 RMSDP=2.67D-04 MaxDP=1.01D-02 DE=-1.38D-02 OVMax= 3.22D-02

 Cycle   3  Pass 1  IDiag  1:
 RMSU=  2.66D-04    CP:  9.97D-01  1.05D+00
 E= -849.821453822887     Delta-E=        0.002206882948 Rises=F Damp=F
 DIIS: error= 3.52D-03 at cycle   3 NSaved=   3.
 NSaved= 3 IEnMin= 2 EnMin= -849.823660705835     IErMin= 2 ErrMin= 1.51D-03
 ErrMax= 3.52D-03  0.00D+00 EMaxC= 1.00D-01 BMatC= 6.12D-03 BMatP= 2.24D-03
 IDIUse=3 WtCom= 1.44D-01 WtEn= 8.56D-01
 Coeff-Com: -0.749D-01 0.688D+00 0.387D+00
 Coeff-En:   0.000D+00 0.646D+00 0.354D+00
 Coeff:     -0.108D-01 0.652D+00 0.359D+00
 Gap=     0.179 Goal=   None    Shift=    0.000
 RMSDP=2.15D-04 MaxDP=7.60D-03 DE= 2.21D-03 OVMax= 5.73D-02

 Cycle   4  Pass 1  IDiag  1:
 RMSU=  1.22D-04    CP:  9.97D-01  1.23D+00  4.36D-01
 E= -849.826855813731     Delta-E=       -0.005401990844 Rises=F Damp=F
 DIIS: error= 9.68D-04 at cycle   4 NSaved=   4.
 NSaved= 4 IEnMin= 4 EnMin= -849.826855813731     IErMin= 4 ErrMin= 9.68D-04
 ErrMax= 9.68D-04  0.00D+00 EMaxC= 1.00D-01 BMatC= 6.78D-04 BMatP= 2.24D-03
 IDIUse=3 WtCom= 9.90D-01 WtEn= 9.68D-03
 Coeff-Com: -0.578D-01 0.238D+00 0.275D+00 0.545D+00
 Coeff-En:   0.000D+00 0.000D+00 0.421D-01 0.958D+00
 Coeff:     -0.572D-01 0.236D+00 0.273D+00 0.549D+00
 Gap=     0.179 Goal=   None    Shift=    0.000
 RMSDP=6.82D-05 MaxDP=1.77D-03 DE=-5.40D-03 OVMax= 9.32D-03

 Cycle   5  Pass 1  IDiag  1:
 RMSU=  4.82D-05    CP:  9.97D-01  1.29D+00  5.45D-01  1.21D+00
 E= -849.827558052511     Delta-E=       -0.000702238779 Rises=F Damp=F
 DIIS: error= 4.85D-04 at cycle   5 NSaved=   5.
 NSaved= 5 IEnMin= 5 EnMin= -849.827558052511     IErMin= 5 ErrMin= 4.85D-04
 ErrMax= 4.85D-04  0.00D+00 EMaxC= 1.00D-01 BMatC= 1.77D-04 BMatP= 6.78D-04
 IDIUse=3 WtCom= 9.95D-01 WtEn= 4.85D-03
 Coeff-Com:  0.322D-02-0.192D+00 0.767D-01 0.282D+00 0.830D+00
 Coeff-En:   0.000D+00 0.000D+00 0.000D+00 0.000D+00 0.100D+01
 Coeff:      0.321D-02-0.191D+00 0.763D-01 0.281D+00 0.830D+00
 Gap=     0.181 Goal=   None    Shift=    0.000
 RMSDP=7.83D-05 MaxDP=2.00D-03 DE=-7.02D-04 OVMax= 1.54D-02

 Cycle   6  Pass 1  IDiag  1:
 RMSU=  3.52D-05    CP:  9.97D-01  1.35D+00  6.40D-01  1.65D+00  1.35D+00
 E= -849.827912199127     Delta-E=       -0.000354146616 Rises=F Damp=F
 DIIS: error= 4.04D-04 at cycle   6 NSaved=   6.
 NSaved= 6 IEnMin= 6 EnMin= -849.827912199127     IErMin= 6 ErrMin= 4.04D-04
 ErrMax= 4.04D-04  0.00D+00 EMaxC= 1.00D-01 BMatC= 9.96D-05 BMatP= 1.77D-04
 IDIUse=3 WtCom= 9.96D-01 WtEn= 4.04D-03
 Coeff-Com:  0.195D-01-0.209D+00 0.783D-02-0.168D-01 0.607D+00 0.592D+00
 Coeff-En:   0.000D+00 0.000D+00 0.000D+00 0.000D+00 0.000D+00 0.100D+01
 Coeff:      0.194D-01-0.208D+00 0.780D-02-0.167D-01 0.604D+00 0.593D+00
 Gap=     0.180 Goal=   None    Shift=    0.000
 RMSDP=4.43D-05 MaxDP=1.18D-03 DE=-3.54D-04 OVMax= 7.24D-03

 Cycle   7  Pass 1  IDiag  1:
 RMSU=  1.78D-05    CP:  9.97D-01  1.38D+00  7.07D-01  1.88D+00  1.69D+00
                    CP:  1.10D+00
 E= -849.828078695040     Delta-E=       -0.000166495914 Rises=F Damp=F
 DIIS: error= 2.30D-04 at cycle   7 NSaved=   7.
 NSaved= 7 IEnMin= 7 EnMin= -849.828078695040     IErMin= 7 ErrMin= 2.30D-04
 ErrMax= 2.30D-04  0.00D+00 EMaxC= 1.00D-01 BMatC= 2.32D-05 BMatP= 9.96D-05
 IDIUse=3 WtCom= 9.98D-01 WtEn= 2.30D-03
 Coeff-Com:  0.913D-02-0.340D-01 0.614D-02-0.140D+00-0.122D-01 0.194D+00
 Coeff-Com:  0.977D+00
 Coeff-En:   0.000D+00 0.000D+00 0.000D+00 0.000D+00 0.000D+00 0.000D+00
 Coeff-En:   0.100D+01
 Coeff:      0.911D-02-0.339D-01 0.612D-02-0.140D+00-0.122D-01 0.193D+00
 Coeff:      0.977D+00
 Gap=     0.180 Goal=   None    Shift=    0.000
 RMSDP=3.96D-05 MaxDP=9.33D-04 DE=-1.66D-04 OVMax= 6.92D-03

 Cycle   8  Pass 1  IDiag  1:
 RMSU=  1.01D-05    CP:  9.97D-01  1.41D+00  7.56D-01  2.07D+00  2.00D+00
                    CP:  1.55D+00  1.47D+00
 E= -849.828149641827     Delta-E=       -0.000070946787 Rises=F Damp=F
 DIIS: error= 1.46D-04 at cycle   8 NSaved=   8.
 NSaved= 8 IEnMin= 8 EnMin= -849.828149641827     IErMin= 8 ErrMin= 1.46D-04
 ErrMax= 1.46D-04  0.00D+00 EMaxC= 1.00D-01 BMatC= 1.05D-05 BMatP= 2.32D-05
 IDIUse=3 WtCom= 9.99D-01 WtEn= 1.46D-03
 Coeff-Com: -0.802D-03 0.693D-01 0.802D-02-0.119D+00-0.293D+00-0.135D+00
 Coeff-Com:  0.832D+00 0.638D+00
 Coeff-En:   0.000D+00 0.000D+00 0.000D+00 0.000D+00 0.000D+00 0.000D+00
 Coeff-En:   0.000D+00 0.100D+01
 Coeff:     -0.800D-03 0.692D-01 0.801D-02-0.118D+00-0.293D+00-0.134D+00
 Coeff:      0.831D+00 0.638D+00
 Gap=     0.180 Goal=   None    Shift=    0.000
 RMSDP=2.65D-05 MaxDP=5.24D-04 DE=-7.09D-05 OVMax= 4.48D-03

 Cycle   9  Pass 1  IDiag  1:
 RMSU=  6.15D-06    CP:  9.97D-01  1.42D+00  7.86D-01  2.19D+00  2.23D+00
                    CP:  1.85D+00  1.99D+00  1.02D+00
 E= -849.828176478732     Delta-E=       -0.000026836905 Rises=F Damp=F
 DIIS: error= 3.02D-05 at cycle   9 NSaved=   9.
 NSaved= 9 IEnMin= 9 EnMin= -849.828176478732     IErMin= 9 ErrMin= 3.02D-05
 ErrMax= 3.02D-05  0.00D+00 EMaxC= 1.00D-01 BMatC= 7.78D-07 BMatP= 1.05D-05
 IDIUse=1 WtCom= 1.00D+00 WtEn= 0.00D+00
 Coeff-Com: -0.256D-02 0.379D-01 0.993D-03-0.168D-01-0.118D+00-0.944D-01
 Coeff-Com:  0.989D-01 0.260D+00 0.834D+00
 Coeff:     -0.256D-02 0.379D-01 0.993D-03-0.168D-01-0.118D+00-0.944D-01
 Coeff:      0.989D-01 0.260D+00 0.834D+00
 Gap=     0.180 Goal=   None    Shift=    0.000
 RMSDP=9.97D-06 MaxDP=2.41D-04 DE=-2.68D-05 OVMax= 1.60D-03

 Cycle  10  Pass 1  IDiag  1:
 RMSU=  2.89D-06    CP:  9.97D-01  1.43D+00  7.95D-01  2.24D+00  2.29D+00
                    CP:  1.97D+00  2.20D+00  1.28D+00  1.32D+00
 E= -849.828179884578     Delta-E=       -0.000003405846 Rises=F Damp=F
 DIIS: error= 1.89D-05 at cycle  10 NSaved=  10.
 NSaved=10 IEnMin=10 EnMin= -849.828179884578     IErMin=10 ErrMin= 1.89D-05
 ErrMax= 1.89D-05  0.00D+00 EMaxC= 1.00D-01 BMatC= 2.42D-07 BMatP= 7.78D-07
 IDIUse=1 WtCom= 1.00D+00 WtEn= 0.00D+00
 Coeff-Com: -0.113D-02 0.663D-02-0.209D-02 0.138D-01-0.401D-02-0.155D-01
 Coeff-Com: -0.105D+00 0.525D-02 0.384D+00 0.718D+00
 Coeff:     -0.113D-02 0.663D-02-0.209D-02 0.138D-01-0.401D-02-0.155D-01
 Coeff:     -0.105D+00 0.525D-02 0.384D+00 0.718D+00
 Gap=     0.180 Goal=   None    Shift=    0.000
 RMSDP=3.15D-06 MaxDP=7.57D-05 DE=-3.41D-06 OVMax= 4.22D-04

 Cycle  11  Pass 1  IDiag  1:
 RMSU=  1.23D-06    CP:  9.96D-01  1.43D+00  7.95D-01  2.25D+00  2.30D+00
                    CP:  2.00D+00  2.25D+00  1.40D+00  1.58D+00  1.12D+00
 E= -849.828180444436     Delta-E=       -0.000000559858 Rises=F Damp=F
 DIIS: error= 7.26D-06 at cycle  11 NSaved=  11.
 NSaved=11 IEnMin=11 EnMin= -849.828180444436     IErMin=11 ErrMin= 7.26D-06
 ErrMax= 7.26D-06  0.00D+00 EMaxC= 1.00D-01 BMatC= 6.04D-08 BMatP= 2.42D-07
 IDIUse=1 WtCom= 1.00D+00 WtEn= 0.00D+00
 Coeff-Com:  0.208D-03-0.832D-02-0.225D-02 0.117D-01 0.345D-01 0.224D-01
 Coeff-Com: -0.799D-01-0.801D-01-0.743D-01 0.337D+00 0.839D+00
 Coeff:      0.208D-03-0.832D-02-0.225D-02 0.117D-01 0.345D-01 0.224D-01
 Coeff:     -0.799D-01-0.801D-01-0.743D-01 0.337D+00 0.839D+00
 Gap=     0.180 Goal=   None    Shift=    0.000
 RMSDP=1.93D-06 MaxDP=4.92D-05 DE=-5.60D-07 OVMax= 2.99D-04

 Cycle  12  Pass 1  IDiag  1:
 RMSU=  6.84D-07    CP:  9.96D-01  1.43D+00  7.96D-01  2.25D+00  2.31D+00
                    CP:  2.02D+00  2.28D+00  1.47D+00  1.74D+00  1.39D+00
                    CP:  1.22D+00
 E= -849.828180616980     Delta-E=       -0.000000172544 Rises=F Damp=F
 DIIS: error= 3.36D-06 at cycle  12 NSaved=  12.
 NSaved=12 IEnMin=12 EnMin= -849.828180616980     IErMin=12 ErrMin= 3.36D-06
 ErrMax= 3.36D-06  0.00D+00 EMaxC= 1.00D-01 BMatC= 9.29D-09 BMatP= 6.04D-08
 IDIUse=1 WtCom= 1.00D+00 WtEn= 0.00D+00
 Coeff-Com:  0.248D-03-0.329D-02-0.504D-03 0.289D-04 0.102D-01 0.680D-02
 Coeff-Com:  0.477D-02-0.256D-01-0.100D+00-0.589D-01 0.260D+00 0.907D+00
 Coeff:      0.248D-03-0.329D-02-0.504D-03 0.289D-04 0.102D-01 0.680D-02
 Coeff:      0.477D-02-0.256D-01-0.100D+00-0.589D-01 0.260D+00 0.907D+00
 Gap=     0.180 Goal=   None    Shift=    0.000
 RMSDP=8.18D-07 MaxDP=1.95D-05 DE=-1.73D-07 OVMax= 1.37D-04

 Cycle  13  Pass 1  IDiag  1:
 RMSU=  2.61D-07    CP:  9.96D-01  1.43D+00  7.96D-01  2.25D+00  2.31D+00
                    CP:  2.03D+00  2.30D+00  1.49D+00  1.79D+00  1.51D+00
                    CP:  1.52D+00  1.28D+00
 E= -849.828180646861     Delta-E=       -0.000000029882 Rises=F Damp=F
 DIIS: error= 1.74D-06 at cycle  13 NSaved=  13.
 NSaved=13 IEnMin=13 EnMin= -849.828180646861     IErMin=13 ErrMin= 1.74D-06
 ErrMax= 1.74D-06  0.00D+00 EMaxC= 1.00D-01 BMatC= 2.40D-09 BMatP= 9.29D-09
 IDIUse=1 WtCom= 1.00D+00 WtEn= 0.00D+00
 Coeff-Com:  0.294D-04 0.473D-03-0.192D-04-0.203D-02-0.252D-02-0.291D-02
 Coeff-Com:  0.178D-01 0.232D-02-0.195D-01-0.741D-01-0.471D-01 0.271D+00
 Coeff-Com:  0.857D+00
 Coeff:      0.294D-04 0.473D-03-0.192D-04-0.203D-02-0.252D-02-0.291D-02
 Coeff:      0.178D-01 0.232D-02-0.195D-01-0.741D-01-0.471D-01 0.271D+00
 Coeff:      0.857D+00
 Gap=     0.180 Goal=   None    Shift=    0.000
 RMSDP=3.14D-07 MaxDP=7.83D-06 DE=-2.99D-08 OVMax= 5.32D-05

 Cycle  14  Pass 1  IDiag  1:
 RMSU=  1.24D-07    CP:  9.96D-01  1.43D+00  7.96D-01  2.25D+00  2.31D+00
                    CP:  2.03D+00  2.30D+00  1.50D+00  1.81D+00  1.54D+00
                    CP:  1.62D+00  1.52D+00  1.32D+00
 E= -849.828180651562     Delta-E=       -0.000000004701 Rises=F Damp=F
 DIIS: error= 1.33D-06 at cycle  14 NSaved=  14.
 NSaved=14 IEnMin=14 EnMin= -849.828180651562     IErMin=14 ErrMin= 1.33D-06
 ErrMax= 1.33D-06  0.00D+00 EMaxC= 1.00D-01 BMatC= 1.27D-09 BMatP= 2.40D-09
 IDIUse=1 WtCom= 1.00D+00 WtEn= 0.00D+00
 Coeff-Com: -0.456D-04 0.116D-02 0.187D-04-0.109D-02-0.397D-02-0.393D-02
 Coeff-Com:  0.105D-01 0.656D-02 0.158D-01-0.307D-01-0.987D-01-0.806D-01
 Coeff-Com:  0.522D+00 0.663D+00
 Coeff:     -0.456D-04 0.116D-02 0.187D-04-0.109D-02-0.397D-02-0.393D-02
 Coeff:      0.105D-01 0.656D-02 0.158D-01-0.307D-01-0.987D-01-0.806D-01
 Coeff:      0.522D+00 0.663D+00
 Gap=     0.180 Goal=   None    Shift=    0.000
 RMSDP=1.47D-07 MaxDP=3.70D-06 DE=-4.70D-09 OVMax= 2.19D-05

 Cycle  15  Pass 1  IDiag  1:
 RMSU=  5.99D-08    CP:  9.96D-01  1.43D+00  7.96D-01  2.25D+00  2.31D+00
                    CP:  2.03D+00  2.30D+00  1.50D+00  1.81D+00  1.55D+00
                    CP:  1.66D+00  1.64D+00  1.63D+00  1.04D+00
 E= -849.828180653155     Delta-E=       -0.000000001592 Rises=F Damp=F
 DIIS: error= 5.25D-07 at cycle  15 NSaved=  15.
 NSaved=15 IEnMin=15 EnMin= -849.828180653155     IErMin=15 ErrMin= 5.25D-07
 ErrMax= 5.25D-07  0.00D+00 EMaxC= 1.00D-01 BMatC= 2.02D-10 BMatP= 1.27D-09
 IDIUse=1 WtCom= 1.00D+00 WtEn= 0.00D+00
 Coeff-Com: -0.156D-04 0.154D-03-0.723D-04 0.327D-03-0.193D-03-0.464D-03
 Coeff-Com: -0.768D-03-0.267D-03 0.850D-02 0.875D-02-0.998D-02-0.800D-01
 Coeff-Com: -0.855D-01 0.139D+00 0.102D+01
 Coeff:     -0.156D-04 0.154D-03-0.723D-04 0.327D-03-0.193D-03-0.464D-03
 Coeff:     -0.768D-03-0.267D-03 0.850D-02 0.875D-02-0.998D-02-0.800D-01
 Coeff:     -0.855D-01 0.139D+00 0.102D+01
 Gap=     0.180 Goal=   None    Shift=    0.000
 RMSDP=8.43D-08 MaxDP=1.91D-06 DE=-1.59D-09 OVMax= 1.23D-05

 Cycle  16  Pass 1  IDiag  1:
 RMSU=  3.07D-08    CP:  9.96D-01  1.43D+00  7.96D-01  2.25D+00  2.31D+00
                    CP:  2.03D+00  2.30D+00  1.50D+00  1.81D+00  1.55D+00
                    CP:  1.68D+00  1.68D+00  1.79D+00  1.31D+00  1.38D+00
 E= -849.828180653576     Delta-E=       -0.000000000421 Rises=F Damp=F
 DIIS: error= 1.32D-07 at cycle  16 NSaved=  16.
 NSaved=16 IEnMin=16 EnMin= -849.828180653576     IErMin=16 ErrMin= 1.32D-07
 ErrMax= 1.32D-07  0.00D+00 EMaxC= 1.00D-01 BMatC= 1.10D-11 BMatP= 2.02D-10
 IDIUse=1 WtCom= 1.00D+00 WtEn= 0.00D+00
 Coeff-Com:  0.391D-05-0.140D-03-0.151D-04 0.170D-03 0.505D-03 0.287D-03
 Coeff-Com: -0.128D-02-0.984D-03-0.934D-03 0.523D-02 0.145D-01 0.387D-02
 Coeff-Com: -0.899D-01-0.811D-01 0.892D-01 0.106D+01
 Coeff:      0.391D-05-0.140D-03-0.151D-04 0.170D-03 0.505D-03 0.287D-03
 Coeff:     -0.128D-02-0.984D-03-0.934D-03 0.523D-02 0.145D-01 0.387D-02
 Coeff:     -0.899D-01-0.811D-01 0.892D-01 0.106D+01
 Gap=     0.180 Goal=   None    Shift=    0.000
 RMSDP=3.43D-08 MaxDP=7.56D-07 DE=-4.21D-10 OVMax= 7.02D-06

 Cycle  17  Pass 1  IDiag  1:
 RMSU=  1.19D-08    CP:  9.96D-01  1.43D+00  7.96D-01  2.25D+00  2.31D+00
                    CP:  2.03D+00  2.30D+00  1.50D+00  1.81D+00  1.55D+00
                    CP:  1.68D+00  1.69D+00  1.83D+00  1.41D+00  1.71D+00
                    CP:  1.54D+00
 E= -849.828180653633     Delta-E=       -0.000000000058 Rises=F Damp=F
 DIIS: error= 7.36D-08 at cycle  17 NSaved=  17.
 NSaved=17 IEnMin=17 EnMin= -849.828180653633     IErMin=17 ErrMin= 7.36D-08
 ErrMax= 7.36D-08  0.00D+00 EMaxC= 1.00D-01 BMatC= 2.06D-12 BMatP= 1.10D-11
 IDIUse=1 WtCom= 1.00D+00 WtEn= 0.00D+00
 Coeff-Com:  0.578D-06 0.388D-05 0.169D-04-0.648D-04-0.562D-04-0.134D-05
 Coeff-Com:  0.206D-03 0.245D-03-0.833D-03-0.142D-02-0.101D-02 0.832D-02
 Coeff-Com:  0.204D-01-0.400D-02-0.143D+00-0.169D+00 0.129D+01
 Coeff:      0.578D-06 0.388D-05 0.169D-04-0.648D-04-0.562D-04-0.134D-05
 Coeff:      0.206D-03 0.245D-03-0.833D-03-0.142D-02-0.101D-02 0.832D-02
 Coeff:      0.204D-01-0.400D-02-0.143D+00-0.169D+00 0.129D+01
 Gap=     0.180 Goal=   None    Shift=    0.000
 RMSDP=2.16D-08 MaxDP=5.52D-07 DE=-5.75D-11 OVMax= 4.74D-06

 Cycle  18  Pass 1  IDiag  1:
 RMSU=  5.49D-09    CP:  9.96D-01  1.43D+00  7.96D-01  2.25D+00  2.31D+00
                    CP:  2.03D+00  2.30D+00  1.50D+00  1.81D+00  1.55D+00
                    CP:  1.68D+00  1.69D+00  1.85D+00  1.45D+00  1.85D+00
                    CP:  1.97D+00  1.93D+00
 E= -849.828180653628     Delta-E=        0.000000000006 Rises=F Damp=F
 DIIS: error= 4.52D-08 at cycle  18 NSaved=  18.
 NSaved=18 IEnMin=17 EnMin= -849.828180653633     IErMin=18 ErrMin= 4.52D-08
 ErrMax= 4.52D-08  0.00D+00 EMaxC= 1.00D-01 BMatC= 7.26D-13 BMatP= 2.06D-12
 IDIUse=1 WtCom= 1.00D+00 WtEn= 0.00D+00
 Coeff-Com: -0.921D-06 0.362D-04 0.347D-05-0.289D-04-0.134D-03-0.251D-04
 Coeff-Com:  0.238D-03 0.298D-03 0.319D-03-0.125D-02-0.406D-02-0.253D-02
 Coeff-Com:  0.223D-01 0.231D-01-0.258D-02-0.317D+00-0.471D-01 0.133D+01
 Coeff:     -0.921D-06 0.362D-04 0.347D-05-0.289D-04-0.134D-03-0.251D-04
 Coeff:      0.238D-03 0.298D-03 0.319D-03-0.125D-02-0.406D-02-0.253D-02
 Coeff:      0.223D-01 0.231D-01-0.258D-02-0.317D+00-0.471D-01 0.133D+01
 Gap=     0.180 Goal=   None    Shift=    0.000
 RMSDP=1.58D-08 MaxDP=4.06D-07 DE= 5.68D-12 OVMax= 4.17D-06

 Cycle  19  Pass 1  IDiag  1:
 RMSU=  2.74D-09    CP:  9.96D-01  1.43D+00  7.96D-01  2.25D+00  2.31D+00
                    CP:  2.03D+00  2.30D+00  1.50D+00  1.81D+00  1.55D+00
                    CP:  1.68D+00  1.69D+00  1.86D+00  1.48D+00  1.94D+00
                    CP:  2.24D+00  2.73D+00  1.86D+00
 E= -849.828180653654     Delta-E=       -0.000000000026 Rises=F Damp=F
 DIIS: error= 1.81D-08 at cycle  19 NSaved=  19.
 NSaved=19 IEnMin=19 EnMin= -849.828180653654     IErMin=19 ErrMin= 1.81D-08
 ErrMax= 1.81D-08  0.00D+00 EMaxC= 1.00D-01 BMatC= 1.76D-13 BMatP= 7.26D-13
 IDIUse=1 WtCom= 1.00D+00 WtEn= 0.00D+00
 Coeff-Com: -0.317D-06-0.120D-05-0.372D-05 0.171D-04 0.959D-05 0.122D-04
 Coeff-Com: -0.109D-03-0.244D-04 0.337D-03 0.507D-03 0.382D-03-0.290D-02
 Coeff-Com: -0.778D-02 0.110D-03 0.469D-01 0.570D-01-0.348D+00-0.839D-01
 Coeff-Com:  0.134D+01
 Coeff:     -0.317D-06-0.120D-05-0.372D-05 0.171D-04 0.959D-05 0.122D-04
 Coeff:     -0.109D-03-0.244D-04 0.337D-03 0.507D-03 0.382D-03-0.290D-02
 Coeff:     -0.778D-02 0.110D-03 0.469D-01 0.570D-01-0.348D+00-0.839D-01
 Coeff:      0.134D+01
 Gap=     0.180 Goal=   None    Shift=    0.000
 RMSDP=8.11D-09 MaxDP=2.26D-07 DE=-2.61D-11 OVMax= 2.12D-06

 SCF Done:  E(RM062X) =  -849.828180654     A.U. after   19 cycles
            NFock= 19  Conv=0.81D-08     -V/T= 2.0027
 KE= 8.475611221274D+02 PE=-2.806299830496D+03 EE= 7.195278151278D+02
 Leave Link  502 at Tue Oct 24 22:37:10 2017, MaxMem=   419430400 cpu:       470.7
 (Enter /home/scicons/Gaussian09.D01/l701.exe)
 Compute integral first derivatives.
 ... and contract with generalized density number  0.
 Leave Link  701 at Tue Oct 24 22:37:10 2017, MaxMem=   419430400 cpu:         1.8
 (Enter /home/scicons/Gaussian09.D01/l702.exe)
 L702 exits ... SP integral derivatives will be done elsewhere.
 Leave Link  702 at Tue Oct 24 22:37:10 2017, MaxMem=   419430400 cpu:         0.1
 (Enter /home/scicons/Gaussian09.D01/l703.exe)
 Compute integral first derivatives, UseDBF=F ICtDFT=           0.
 Integral derivatives from FoFJK, PRISM(SPDF).
 Calling FoFJK, ICntrl=      2127 FMM=F ISym2X=0 I1Cent= 0 IOpClX= 0 NMat=1 NMatS=1 NMatT=0.
 FoFJK:  IHMeth= 1 ICntrl=    2127 DoSepK=F KAlg= 0 I1Cent=   0 FoldK=F
 IRaf=         0 NMat=   1 IRICut=       1 DoRegI=T DoRafI=F ISym2E= 0.
 FoFCou: FMM=F IPFlag=           0 FMFlag=      100000 FMFlg1=         800
         NFxFlg=           0 DoJE=F BraDBF=F KetDBF=F FulRan=T
[...]
                          D1        D2        A4        R4        D4
   1                    0.67122   0.66782  -0.30636   0.05740  -0.05631
                          D3        A6        A1        A5        D5
   1                   -0.04204  -0.02465  -0.01411   0.01354   0.01204
 QST in optimization variable space.
                        Tangent   TS vect  // Eig F  Eigenval
   1         R1        -0.03527  -0.00074   0.00018  -0.00366
   2         R2         0.00469   0.00254   0.00031   0.00225
   3         R3        -0.00338  -0.00878   0.00003   0.00367
   4         R4        -0.73404   0.05740  -0.00018   0.00514
   5         R5         0.00028  -0.00130  -0.00010   0.02334
   6         R6        -0.02235   0.00084  -0.00027   0.04834
   7         R7        -0.02046  -0.00455   0.00016   0.11449
   8         A1         0.00356  -0.01411  -0.00003   0.15707
   9         A2         0.02169   0.00217  -0.00004   0.20729
  10         A3         0.00291   0.00023  -0.00010   0.24882
  11         A4         0.00530  -0.30636   0.00008   0.29676
  12         A5        -0.00485   0.01354   0.00030   0.37822
  13         A6        -0.50817  -0.02465   0.00007   0.46752
  14         A7         0.01848  -0.00227   0.00007   0.49445
  15         D1         0.20475   0.67122   0.00003   0.50446
  16         D2         0.21974   0.66782   0.00004   0.55138
  17         D3        -0.21003  -0.04204   0.00011   0.67494
  18         D4        -0.19938  -0.05631  -0.00012   0.98185
  19         D5         0.14745   0.01204   0.000001000.00000
  20         D6         0.06371  -0.01132   0.000001000.00000
 RFO step:  Lambda0=8.641534523D-06 Lambda=-5.11943349D-05.
 Linear search not attempted -- option 19 set.
 Iteration  1 RMS(Cart)=  0.05202758 RMS(Int)=  0.00181639
 Iteration  2 RMS(Cart)=  0.00205830 RMS(Int)=  0.00000094
 Iteration  3 RMS(Cart)=  0.00000201 RMS(Int)=  0.00000027
 Iteration  4 RMS(Cart)=  0.00000000 RMS(Int)=  0.00000027
 ITry= 1 IFail=0 DXMaxC= 1.47D-01 DCOld= 1.00D+10 DXMaxT= 3.00D-01 DXLimC= 3.00D+00 Rises=F
 Variable       Old X    -DE/DX   Delta X   Delta X   Delta X     New X
                                 (Linear)    (Quad)   (Total)
    R1        2.78115  -0.00005   0.00000   0.00019   0.00019   2.78134
    R2        2.79696  -0.00011   0.00000   0.00025   0.00025   2.79721
    R3        3.24031   0.00013   0.00000  -0.00091  -0.00091   3.23940
    R4        5.80142  -0.00023   0.00000  -0.09174  -0.09174   5.70968
    R5        1.82190   0.00004   0.00000   0.00036   0.00036   1.82227
    R6        2.32012   0.00004   0.00000  -0.00229  -0.00229   2.31783
    R7        2.32452  -0.00003   0.00000   0.00228   0.00228   2.32680
    A1        1.96138  -0.00006   0.00000  -0.00134  -0.00134   1.96003
    A2        1.78270   0.00032   0.00000   0.00205   0.00205   1.78475
    A3        1.72619   0.00000   0.00000  -0.00073  -0.00073   1.72546
    A4        2.05977  -0.00026   0.00000  -0.02642  -0.02642   2.03335
    A5        1.78410   0.00000   0.00000   0.00096   0.00096   1.78505
    A6        0.96410   0.00029   0.00000   0.02419   0.02419   0.98829
    A7        2.05081   0.00006   0.00000   0.00019   0.00019   2.05100
    D1       -1.52685   0.00002   0.00000  -0.03679  -0.03679  -1.56364
    D2        0.30675   0.00016   0.00000  -0.03708  -0.03708   0.26967
    D3       -1.92458   0.00004   0.00000   0.02589   0.02589  -1.89869
    D4        0.08838   0.00006   0.00000   0.02479   0.02479   0.11317
    D5        1.29995   0.00012   0.00000   0.09129   0.09129   1.39124
    D6        1.97945  -0.00014   0.00000  -0.00583  -0.00583   1.97363
         Item               Value     Threshold  Converged?
 Maximum Force            0.000319     0.000450     YES
 RMS     Force            0.000143     0.000300     YES
 Maximum Displacement     0.146755     0.001800     NO 
 RMS     Displacement     0.052030     0.001200     NO 
 Predicted change in Energy=-2.177163D-05
 Optimization stopped.
    -- Number of steps exceeded,  NStep= 100
    -- Flag reset to prevent archiving.
                           ----------------------------
                           ! Non-Optimized Parameters !
                           ! (Angstroms and Degrees)  !
 --------------------------                            --------------------------
 ! Name  Definition        TS        Reactant  Product Derivative Info.         !
 --------------------------------------------------------------------------------
 ! R1    R(1,2)             1.4718    1.7369    1.7369 -DE/DX =    0.0          !
 ! R2    R(1,3)             1.4802    1.4449    1.4449 -DE/DX =   -0.0001       !
 ! R3    R(1,5)             1.7142    1.7401    1.7401 -DE/DX =    0.0001       !
 ! R4    R(2,6)             3.0214    2.04      1.4052 -DE/DX =   -0.0002       !
 ! R5    R(4,5)             0.9643    0.962     0.962  -DE/DX =    0.0          !
 ! R6    R(6,7)             1.2265    1.3958    1.3958 -DE/DX =    0.0          !
 ! R7    R(7,8)             1.2313    1.3839    1.3839 -DE/DX =    0.0          !
 ! A1    A(2,1,3)         112.3017  108.5288  108.5288 -DE/DX =   -0.0001       !
 ! A2    A(2,1,5)         102.2586   84.0082   84.0082 -DE/DX =    0.0003       !
 ! A3    A(3,1,5)          98.8617   95.6699   95.6699 -DE/DX =    0.0          !
 ! A4    A(1,2,6)         116.5021  113.6979  113.6979 -DE/DX =   -0.0003       !
 ! A5    A(1,5,4)         102.2761  106.1656  106.1656 -DE/DX =    0.0          !
 ! A6    A(2,6,7)          56.6251  150.55    119.69   -DE/DX =    0.0003       !
 ! A7    A(6,7,8)         117.5138  102.4572  102.4572 -DE/DX =    0.0001       !
 ! D1    D(3,1,2,6)       -89.5901  105.2671  105.2671 -DE/DX =    0.0          !
 ! D2    D(5,1,2,6)        15.4509 -160.7422 -160.7422 -DE/DX =    0.0002       !
 ! D3    D(2,1,5,4)      -108.7872   59.9938   59.9938 -DE/DX =    0.0          !
 ! D4    D(3,1,5,4)         6.4842  168.0938  168.0938 -DE/DX =    0.0001       !
 ! D5    D(1,2,6,7)        79.7121  -45.5539  -45.5539 -DE/DX =    0.0001       !
 ! D6    D(2,6,7,8)       113.0806   61.5505   61.5505 -DE/DX =   -0.0001       !
 --------------------------------------------------------------------------------
 GradGradGradGradGradGradGradGradGradGradGradGradGradGradGradGradGradGrad

 Largest change from initial coordinates is atom    4       2.042 Angstoms.
 Leave Link  103 at Wed Oct 25 00:28:16 2017, MaxMem=   419430400 cpu:         0.1
 (Enter /home/scicons/Gaussian09.D01/l202.exe)
                          Input orientation:                          
 ---------------------------------------------------------------------
 Center     Atomic      Atomic             Coordinates (Angstroms)
 Number     Number       Type             X           Y           Z
 ---------------------------------------------------------------------
      1         16           0       -0.923051   -0.030102    0.930002
      2          8           0        0.475578    0.241614    1.298735
      3          8           0       -1.594168    1.155951    0.352469
      4          1           0       -1.065295   -0.350826   -1.178673
      5          8           0       -0.745044   -0.957488   -0.501243
      6          8           0        2.633025   -0.133088   -0.852960
      7          8           0        1.842702    0.805489   -0.810088
      8          8           0        2.302032    1.925297   -0.590649
 ---------------------------------------------------------------------
                    Distance matrix (angstroms):
                    1          2          3          4          5
     1  S    0.000000
     2  O    1.471719   0.000000
     3  O    1.480090   2.452607   0.000000
     4  H    2.137663   2.977049   2.212347   0.000000
     5  O    1.714699   2.483482   2.432377   0.964111   0.000000
     6  O    3.979351   3.069979   4.580812   3.719014   3.494951
     7  O    3.372760   2.575678   3.645056   3.151089   3.146410
     8  O    4.066587   3.120977   4.081880   4.106750   4.195606
                    6          7          8
     6  O    0.000000
     7  O    1.227752   0.000000
     8  O    2.101264   1.230085   0.000000
 Stoichiometry    HO6S(1-)
 Framework group  C1[X(HO6S)]
 Deg. of freedom    18
 Full point group                 C1      NOp   1
 RotChk:  IX=0 Diff= 7.95D-16
 Largest Abelian subgroup         C1      NOp   1
 Largest concise Abelian subgroup C1      NOp   1
                         Standard orientation:                         
 ---------------------------------------------------------------------
 Center     Atomic      Atomic             Coordinates (Angstroms)
 Number     Number       Type             X           Y           Z
 ---------------------------------------------------------------------
      1         16           0        1.552637   -0.033378    0.348826
      2          8           0        0.346168   -0.320575    1.141232
      3          8           0        1.723946   -0.976637   -0.778817
      4          1           0        1.013210    1.012838   -1.435565
      5          8           0        1.079783    1.356417   -0.537216
      6          8           0       -2.301333    0.952721    0.250037
      7          8           0       -1.754369    0.008447   -0.312593
      8          8           0       -2.326120   -1.080222   -0.280849
 ---------------------------------------------------------------------
 Rotational constants (GHZ):      4.0272501      1.2279596      1.1297694
 Leave Link  202 at Wed Oct 25 00:28:16 2017, MaxMem=   419430400 cpu:         0.0
 (Enter /home/scicons/Gaussian09.D01/l601.exe)
 Copying SCF densities to generalized density rwf, IOpCl= 0 IROHF=0.

 **********************************************************************

            Population analysis using the SCF density.

 **********************************************************************

 Orbital symmetries:
       Occupied  (A) (A) (A) (A) (A) (A) (A) (A) (A) (A) (A) (A)
                 (A) (A) (A) (A) (A) (A) (A) (A) (A) (A) (A) (A)
                 (A) (A) (A) (A) (A) (A) (A) (A) (A)
       Virtual   (A) (A) (A) (A) (A) (A) (A) (A) (A) (A) (A) (A)
                 (A) (A) (A) (A) (A) (A) (A) (A) (A) (A) (A) (A)
                 (A) (A) (A) (A) (A) (A) (A) (A) (A) (A) (A) (A)
                 (A) (A) (A) (A) (A) (A) (A) (A) (A) (A) (A) (A)
                 (A) (A) (A) (A) (A) (A) (A) (A) (A) (A) (A) (A)
                 (A) (A) (A) (A) (A) (A) (A) (A) (A) (A) (A) (A)
                 (A) (A) (A) (A) (A) (A) (A) (A) (A) (A) (A) (A)
                 (A) (A) (A) (A) (A) (A) (A) (A) (A) (A) (A) (A)
                 (A) (A) (A) (A) (A) (A) (A) (A) (A) (A) (A) (A)
                 (A) (A) (A) (A) (A) (A) (A) (A) (A) (A) (A) (A)
                 (A) (A) (A) (A) (A) (A) (A) (A) (A) (A) (A) (A)
                 (A) (A) (A) (A) (A) (A) (A) (A) (A) (A) (A) (A)
                 (A) (A) (A) (A) (A) (A) (A) (A) (A) (A) (A) (A)
                 (A) (A) (A) (A) (A) (A) (A) (A) (A) (A) (A) (A)
                 (A) (A) (A) (A) (A) (A) (A) (A) (A) (A) (A) (A)
                 (A) (A) (A) (A) (A) (A) (A) (A) (A) (A) (A) (A)
                 (A) (A) (A) (A) (A) (A) (A) (A) (A) (A) (A) (A)
                 (A) (A) (A) (A) (A) (A) (A) (A) (A) (A) (A) (A)
                 (A) (A) (A) (A) (A) (A) (A) (A) (A) (A) (A) (A)
                 (A) (A) (A) (A) (A) (A) (A) (A) (A) (A) (A) (A)
                 (A) (A) (A) (A) (A) (A) (A) (A) (A) (A) (A) (A)
                 (A) (A) (A) (A) (A) (A) (A) (A) (A) (A) (A) (A)
                 (A) (A)
 The electronic state is 1-A.
 Alpha  occ. eigenvalues --  -89.84170 -19.79908 -19.59772 -19.59642 -19.45227
 Alpha  occ. eigenvalues --  -19.40527 -19.40385  -8.18414  -6.10648  -6.10447
 Alpha  occ. eigenvalues --   -6.10105  -1.38966  -1.09122  -1.02501  -0.92701
 Alpha  occ. eigenvalues --   -0.89638  -0.74040  -0.55762  -0.55430  -0.53948
 Alpha  occ. eigenvalues --   -0.51813  -0.39137  -0.35261  -0.33507  -0.30588
 Alpha  occ. eigenvalues --   -0.28996  -0.27965  -0.27592  -0.23653  -0.20121
 Alpha  occ. eigenvalues --   -0.18690  -0.16702  -0.11302
 Alpha virt. eigenvalues --    0.02249   0.13411   0.16697   0.18187   0.18536
 Alpha virt. eigenvalues --    0.20835   0.23480   0.24039   0.26202   0.26459
 Alpha virt. eigenvalues --    0.28596   0.30706   0.31779   0.31917   0.32581
 Alpha virt. eigenvalues --    0.34685   0.34913   0.35678   0.37198   0.38261
 Alpha virt. eigenvalues --    0.40400   0.40648   0.41214   0.42071   0.42876
 Alpha virt. eigenvalues --    0.43388   0.44236   0.44441   0.45910   0.47252
 Alpha virt. eigenvalues --    0.48007   0.49134   0.50302   0.51852   0.53703
 Alpha virt. eigenvalues --    0.55122   0.55595   0.58016   0.60385   0.61131
 Alpha virt. eigenvalues --    0.62933   0.64467   0.69731   0.73208   0.77088
 Alpha virt. eigenvalues --    0.81194   0.85701   0.85864   0.91698   0.91855
 Alpha virt. eigenvalues --    0.95821   0.96917   0.99672   1.01610   1.02761
 Alpha virt. eigenvalues --    1.04409   1.04992   1.06883   1.08029   1.10251
 Alpha virt. eigenvalues --    1.11806   1.12682   1.14311   1.14578   1.15544
 Alpha virt. eigenvalues --    1.15619   1.17052   1.18736   1.18892   1.22070
 Alpha virt. eigenvalues --    1.22932   1.23214   1.25022   1.25813   1.27393
 Alpha virt. eigenvalues --    1.28505   1.29821   1.30416   1.32013   1.33523
 Alpha virt. eigenvalues --    1.33935   1.35186   1.36213   1.38339   1.40942
 Alpha virt. eigenvalues --    1.44015   1.46219   1.47587   1.48804   1.50615
 Alpha virt. eigenvalues --    1.55660   1.57373   1.57894   1.60054   1.62474
 Alpha virt. eigenvalues --    1.66116   1.66214   1.71386   1.72548   1.82358
 Alpha virt. eigenvalues --    1.93870   1.99359   2.00950   2.02773   2.09452
 Alpha virt. eigenvalues --    2.12406   2.14311   2.18690   2.21048   2.26384
 Alpha virt. eigenvalues --    2.32855   2.33797   2.37544   2.39039   2.45511
 Alpha virt. eigenvalues --    2.47052   2.50377   2.54455   2.58489   2.65073
 Alpha virt. eigenvalues --    2.70915   3.02264   3.03396   3.10001   3.20875
 Alpha virt. eigenvalues --    3.23356   3.28684   3.37555   3.39707   3.42748
 Alpha virt. eigenvalues --    3.44304   3.50356   3.51556   3.54321   3.56761
 Alpha virt. eigenvalues --    3.58566   3.69646   3.72409   3.74037   3.74762
 Alpha virt. eigenvalues --    3.75574   3.78827   3.79993   3.84541   3.84932
 Alpha virt. eigenvalues --    3.89069   3.89912   3.91904   3.92860   3.94624
 Alpha virt. eigenvalues --    3.97158   4.00863   4.15939   4.23318   4.37177
 Alpha virt. eigenvalues --    4.46145   4.56881   4.72543   4.77526   4.80143
 Alpha virt. eigenvalues --    4.82486   4.84090   4.84223   4.85645   4.87488
 Alpha virt. eigenvalues --    4.92563   5.00474   5.05290   5.11324   5.13778
 Alpha virt. eigenvalues --    5.14312   5.14993   5.18325   5.20269   5.21248
 Alpha virt. eigenvalues --    5.21729   5.22805   5.24930   5.27465   5.27902
 Alpha virt. eigenvalues --    5.29263   5.29924   5.31438   5.32080   5.32656
 Alpha virt. eigenvalues --    5.37249   5.39043   5.39973   5.41668   5.42557
 Alpha virt. eigenvalues --    5.43839   5.47241   5.50084   5.52406   5.58273
 Alpha virt. eigenvalues --    5.60369   5.62216   5.63603   5.68550   5.71947
 Alpha virt. eigenvalues --    5.77793   5.83800   5.86197   5.89997   5.91391
 Alpha virt. eigenvalues --    5.95910   5.96356   5.98430   5.98982   6.10587
 Alpha virt. eigenvalues --    6.16150   6.38341   6.50842   6.53031   6.66579
 Alpha virt. eigenvalues --    6.79494   6.81417   6.88080   6.90285   7.34218
 Alpha virt. eigenvalues --    8.06563   8.36224   8.41184   8.55111   9.33566
 Alpha virt. eigenvalues --    9.50858  14.07192  14.13431  14.15758  14.29452
 Alpha virt. eigenvalues --   14.30261  14.33200  14.33410  14.33871  14.37239
 Alpha virt. eigenvalues --   14.49692  14.50738  14.53478  14.54105  14.54308
 Alpha virt. eigenvalues --   14.57102  14.57641  14.62555  14.65349  14.65925
 Alpha virt. eigenvalues --   14.69520  14.71456  14.77449  14.80929  14.81231
 Alpha virt. eigenvalues --   14.82673  14.87244  14.91718  15.25811  15.63043
 Alpha virt. eigenvalues --   16.04378  17.97956  18.10300  18.37922  50.10408
 Alpha virt. eigenvalues --   50.31309  50.33841  50.34916  50.38713  50.75384
 Alpha virt. eigenvalues --  190.50052
          Condensed to atoms (all electrons):
               1          2          3          4          5          6
     1  S   15.271326   0.142135   0.134119   0.048039  -0.095446   0.006616
     2  O    0.142135   8.470944  -0.032171   0.001481  -0.028606   0.003055
     3  O    0.134119  -0.032171   8.545506  -0.012609  -0.008367   0.000978
     4  H    0.048039   0.001481  -0.012609   0.328386   0.043873   0.005181
     5  O   -0.095446  -0.028606  -0.008367   0.043873   8.931154   0.014427
     6  O    0.006616   0.003055   0.000978   0.005181   0.014427   8.587023
     7  O   -0.004230   0.012858   0.004774   0.000121  -0.000929  -0.238469
     8  O    0.007258  -0.012805   0.000955  -0.002398   0.000711   0.017013
               7          8
     1  S   -0.004230   0.007258
     2  O    0.012858  -0.012805
     3  O    0.004774   0.000955
     4  H    0.000121  -0.002398
     5  O   -0.000929   0.000711
     6  O   -0.238469   0.017013
     7  O    7.752766  -0.207788
     8  O   -0.207788   8.513339
 Mulliken charges:
               1
     1  S    0.490182
     2  O   -0.556893
     3  O   -0.633185
     4  H    0.587926
     5  O   -0.856817
     6  O   -0.395824
     7  O    0.680896
     8  O   -0.316284
 Sum of Mulliken charges =  -1.00000
 Mulliken charges with hydrogens summed into heavy atoms:
               1
     1  S    0.490182
     2  O   -0.556893
     3  O   -0.633185
     5  O   -0.268891
     6  O   -0.395824
     7  O    0.680896
     8  O   -0.316284
 Electronic spatial extent (au):  <R**2>=           1012.1551
 Charge=             -1.0000 electrons
 Dipole moment (field-independent basis, Debye):
    X=             -3.1501    Y=              1.1709    Z=             -1.4538  Tot=              3.6616
 Quadrupole moment (field-independent basis, Debye-Ang):
   XX=            -62.1494   YY=            -56.5263   ZZ=            -50.3061
   XY=              1.3186   XZ=              3.2328   YZ=             -2.2454
 Traceless Quadrupole moment (field-independent basis, Debye-Ang):
   XX=             -5.8221   YY=             -0.1991   ZZ=              6.0212
   XY=              1.3186   XZ=              3.2328   YZ=             -2.2454
 Octapole moment (field-independent basis, Debye-Ang**2):
  XXX=            -17.7981  YYY=             -3.8607  ZZZ=            -10.6570  XYY=            -10.8531
  XXY=              5.1624  XXZ=              1.3259  XZZ=             -9.3872  YZZ=              5.9015
  YYZ=              3.6872  XYZ=             -2.9026
 Hexadecapole moment (field-independent basis, Debye-Ang**3):
 XXXX=           -941.0235 YYYY=           -243.5830 ZZZZ=           -154.4727 XXXY=              3.5365
 XXXZ=             15.8062 YYYX=             -2.7820 YYYZ=              0.5064 ZZZX=             -3.3031
 ZZZY=             -5.4124 XXYY=           -200.2109 XXZZ=           -170.9227 YYZZ=            -63.6293
 XXYZ=            -11.0982 YYXZ=              5.5276 ZZXY=              4.7074
 N-N= 4.013956185640D+02 E-N=-2.830398921479D+03  KE= 8.482531629331D+02
 No NMR shielding tensors so no spin-rotation constants.
 Leave Link  601 at Wed Oct 25 00:28:17 2017, MaxMem=   419430400 cpu:         1.2
 (Enter /home/scicons/Gaussian09.D01/l9999.exe)


 AN OPTIMIST IS A GUY
 THAT HAS NEVER HAD
 MUCH EXPERIENCE
   (CERTAIN MAXIMS OF ARCHY  -- DON MARQUIS)
 Error termination request processed by link 9999.
 Error termination via Lnk1e in /home/scicons/Gaussian09.D01/l9999.exe at Wed Oct 25 00:28:17 2017.
 Job cpu time:       0 days 13 hours 47 minutes 50.4 seconds.
 File lengths (MBytes):  RWF=     54 Int=      0 D2E=      0 Chk=      7 Scr=      1
