 Entering Gaussian System, Link 0=g09
 Initial command:
 /mf/frisch/g09/l1.exe "/altuv/s0/scratch/Gau-86238.inp" -scrdir="/altuv/s0/scratch/"
 Default CPUs for threads: 90
 Entering Link 1 = /mf/frisch/g09/l1.exe PID=     86242.
  
 Copyright (c) 1988,1990,1992,1993,1995,1998,2003,2009,2013,
            Gaussian, Inc.  All Rights Reserved.
  
 This is part of the Gaussian(R) 09 program.  It is based on
 the Gaussian(R) 03 system (copyright 2003, Gaussian, Inc.),
 the Gaussian(R) 98 system (copyright 1998, Gaussian, Inc.),
 the Gaussian(R) 94 system (copyright 1995, Gaussian, Inc.),
 the Gaussian 92(TM) system (copyright 1992, Gaussian, Inc.),
 the Gaussian 90(TM) system (copyright 1990, Gaussian, Inc.),
 the Gaussian 88(TM) system (copyright 1988, Gaussian, Inc.),
 the Gaussian 86(TM) system (copyright 1986, Carnegie Mellon
 University), and the Gaussian 82(TM) system (copyright 1983,
 Carnegie Mellon University). Gaussian is a federally registered
 trademark of Gaussian, Inc.
  
 This software contains proprietary and confidential information,
 including trade secrets, belonging to Gaussian, Inc.
  
 This software is provided under written license and may be
 used, copied, transmitted, or stored only in accord with that
 written license.
  
 The following legend is applicable only to US Government
 contracts under FAR:
  
                    RESTRICTED RIGHTS LEGEND
  
 Use, reproduction and disclosure by the US Government is
 subject to restrictions as set forth in subparagraphs (a)
 and (c) of the Commercial Computer Software - Restricted
 Rights clause in FAR 52.227-19.
  
 Gaussian, Inc.
 340 Quinnipiac St., Bldg. 40, Wallingford CT 06492
  
  
 ---------------------------------------------------------------
 Warning -- This program may not be used in any manner that
 competes with the business of Gaussian, Inc. or will provide
 assistance to any competitor of Gaussian, Inc.  The licensee
 of this program is prohibited from giving any competitor of
 Gaussian, Inc. access to this program.  By using this program,
 the user acknowledges that Gaussian, Inc. is engaged in the
 business of creating and licensing software in the field of
 computational chemistry and represents and warrants to the
 licensee that it is not a competitor of Gaussian, Inc. and that
 it will not use this program in any manner prohibited above.
 ---------------------------------------------------------------
  

 Cite this work as:
 Gaussian 09, Revision D.01,
 M. J. Frisch, G. W. Trucks, H. B. Schlegel, G. E. Scuseria, 
 M. A. Robb, J. R. Cheeseman, G. Scalmani, V. Barone, B. Mennucci, 
 G. A. Petersson, H. Nakatsuji, M. Caricato, X. Li, H. P. Hratchian, 
 A. F. Izmaylov, J. Bloino, G. Zheng, J. L. Sonnenberg, M. Hada, 
 M. Ehara, K. Toyota, R. Fukuda, J. Hasegawa, M. Ishida, T. Nakajima, 
 Y. Honda, O. Kitao, H. Nakai, T. Vreven, J. A. Montgomery, Jr., 
 J. E. Peralta, F. Ogliaro, M. Bearpark, J. J. Heyd, E. Brothers, 
 K. N. Kudin, V. N. Staroverov, T. Keith, R. Kobayashi, J. Normand, 
 K. Raghavachari, A. Rendell, J. C. Burant, S. S. Iyengar, J. Tomasi, 
 M. Cossi, N. Rega, J. M. Millam, M. Klene, J. E. Knox, J. B. Cross, 
 V. Bakken, C. Adamo, J. Jaramillo, R. Gomperts, R. E. Stratmann, 
 O. Yazyev, A. J. Austin, R. Cammi, C. Pomelli, J. W. Ochterski, 
 R. L. Martin, K. Morokuma, V. G. Zakrzewski, G. A. Voth, 
 P. Salvador, J. J. Dannenberg, S. Dapprich, A. D. Daniels, 
 O. Farkas, J. B. Foresman, J. V. Ortiz, J. Cioslowski, 
 and D. J. Fox, Gaussian, Inc., Wallingford CT, 2013.
 
 ******************************************
 Gaussian 09:  ES64L-G09RevD.01 24-Apr-2013
                24-Apr-2013 
 ******************************************
 SetSPE:  set environment variable "MP_BIND" = "yes"
 SetSPE:  set environment variable "MP_BLIST" = "90"
 -------------------------------------------------
 #p test NOSYMM UFF FREQ=(HPMODES,VIBROT,readfcht)
 -------------------------------------------------
 1/10=4,18=10,30=1,38=1,56=1,64=2/1,3;
 2/12=2,15=1,17=6,18=5,40=1/2;
 3/5=30,11=9,16=1,25=1,30=1,41=10200000,43=2,71=2,140=1/1;
 4/20=10,22=2,24=3/2;
 7/8=11,25=1,30=1,44=-1,70=1,121=1/16,18;
 1/10=4,18=10,30=1,64=2/3;
 99/8=100/99;
 Leave Link    1 at Wed Apr 24 22:27:34 2013, MaxMem=           0 cpu:         0.1
 (Enter /mf/frisch/g09/l101.exe)
 -------------------------------------------
 Gaussian Test Job 846: Anisole Frank-Condon
 -------------------------------------------
 Symbolic Z-matrix:
 Charge =  0 Multiplicity = 1
 6                    -0.00503   0.52755   0. 
 6                     0.93055  -0.51046   0. 
 6                     0.48695  -1.83581   0. 
 6                    -0.87051  -2.13529   0. 
 6                    -1.79849  -1.08989   0. 
 6                    -1.37412   0.23144   0. 
 8                     0.3138    1.85583   0. 
 6                     1.6851    2.22639   0. 
 1                    -1.20515  -3.16578   0. 
 1                     1.21958  -2.63542   0. 
 1                    -2.86091  -1.30716   0. 
 1                     1.99253  -0.30493   0. 
 1                    -2.08137   1.05217   0. 
 1                     1.69898   3.31515   0. 
 1                     2.19962   1.85783   0.89426 
 1                     2.19962   1.85783  -0.89426 
 
 NAtoms=     16 NQM=       16 NQMF=       0 NMMI=      0 NMMIF=      0
                NMic=       0 NMicF=      0.
                    Isotopes and Nuclear Properties:
 (Nuclear quadrupole moments (NQMom) in fm**2, nuclear magnetic moments (NMagM)
  in nuclear magnetons)

  Atom         1           2           3           4           5           6           7           8           9          10
 IAtWgt=          12          12          12          12          12          12          16          12           1           1
 AtmWgt=  12.0000000  12.0000000  12.0000000  12.0000000  12.0000000  12.0000000  15.9949146  12.0000000   1.0078250   1.0078250
 NucSpn=           0           0           0           0           0           0           0           0           1           1
 AtZEff=   0.0000000   0.0000000   0.0000000   0.0000000   0.0000000   0.0000000   0.0000000   0.0000000   0.0000000   0.0000000
 NQMom=    0.0000000   0.0000000   0.0000000   0.0000000   0.0000000   0.0000000   0.0000000   0.0000000   0.0000000   0.0000000
 NMagM=    0.0000000   0.0000000   0.0000000   0.0000000   0.0000000   0.0000000   0.0000000   0.0000000   2.7928460   2.7928460
 AtZNuc=   6.0000000   6.0000000   6.0000000   6.0000000   6.0000000   6.0000000   8.0000000   6.0000000   1.0000000   1.0000000

  Atom        11          12          13          14          15          16
 IAtWgt=           1           1           1           1           1           1
 AtmWgt=   1.0078250   1.0078250   1.0078250   1.0078250   1.0078250   1.0078250
 NucSpn=           1           1           1           1           1           1
 AtZEff=   0.0000000   0.0000000   0.0000000   0.0000000   0.0000000   0.0000000
 NQMom=    0.0000000   0.0000000   0.0000000   0.0000000   0.0000000   0.0000000
 NMagM=    2.7928460   2.7928460   2.7928460   2.7928460   2.7928460   2.7928460
 AtZNuc=   1.0000000   1.0000000   1.0000000   1.0000000   1.0000000   1.0000000
 Generating MM parameters.
 I=    1 IAn=  6 Valence= 5.
          JB=  1 J=    2 IAn=  6 IBT=12 Dist= 1.40D+00
          JB=  2 J=    6 IAn=  6 IBT=12 Dist= 1.40D+00
          JB=  3 J=    7 IAn=  8 IBT=12 Dist= 1.37D+00
 I=    7 IAn=  8 Valence= 3.
          JB=  1 J=    1 IAn=  6 IBT=12 Dist= 1.37D+00
          JB=  2 J=    8 IAn=  6 IBT= 1 Dist= 1.42D+00
 Include all MM classes

 MM sanity checks:
 All charges sum to:                0.00000000
 Charges of atoms sum to:           0.00000000
 MMInit generated parameter data with length LenPar=        2493.
 Leave Link  101 at Wed Apr 24 22:27:34 2013, MaxMem=    33554432 cpu:         0.1
 (Enter /mf/frisch/g09/l103.exe)

 GradGradGradGradGradGradGradGradGradGradGradGradGradGradGradGradGradGrad
 Berny optimization.
 Initialization pass.
 Trust Radius=3.00D-01 FncErr=1.00D-07 GrdErr=1.00D-07
 Number of steps in this run=      2 maximum allowed number of steps=      2.
 GradGradGradGradGradGradGradGradGradGradGradGradGradGradGradGradGradGrad

 Leave Link  103 at Wed Apr 24 22:27:34 2013, MaxMem=    33554432 cpu:         0.0
 (Enter /mf/frisch/g09/l202.exe)
                          Input orientation:                          
 ---------------------------------------------------------------------
 Center     Atomic      Atomic             Coordinates (Angstroms)
 Number     Number       Type             X           Y           Z
 ---------------------------------------------------------------------
      1          6    10061000       -0.005025    0.527546    0.000000
      2          6    10061000        0.930547   -0.510457    0.000000
      3          6    10061000        0.486951   -1.835812    0.000000
      4          6    10061000       -0.870508   -2.135285    0.000000
      5          6    10061000       -1.798492   -1.089888    0.000000
      6          6    10061000       -1.374121    0.231440    0.000000
      7          8    10081000        0.313798    1.855834    0.000000
      8          6    10061003        1.685099    2.226395    0.000000
      9          1    10011000       -1.205154   -3.165777    0.000000
     10          1    10011000        1.219581   -2.635422    0.000000
     11          1    10011000       -2.860911   -1.307157    0.000000
     12          1    10011000        1.992534   -0.304925    0.000000
     13          1    10011000       -2.081367    1.052170    0.000000
     14          1    10011000        1.698975    3.315148    0.000000
     15          1    10011000        2.199624    1.857831    0.894257
     16          1    10011000        2.199624    1.857831   -0.894257
 ---------------------------------------------------------------------
                    Distance matrix (angstroms):
                    1          2          3          4          5
     1  C    0.000000
     2  C    1.397407   0.000000
     3  C    2.414023   1.397621   0.000000
     4  C    2.799952   2.425668   1.390101   0.000000
     5  C    2.415081   2.789874   2.404091   1.397859   0.000000
     6  C    1.400751   2.421138   2.781568   2.419714   1.387803
     7  O    1.366015   2.445345   3.695705   4.163125   3.624782
     8  C    2.396373   2.838962   4.235219   5.055233   4.809692
     9  H    3.883420   3.407630   2.152214   1.083467   2.159020
    10  H    3.391759   2.144531   1.084491   2.149095   3.390788
    11  H    3.394440   3.874260   3.389345   2.155807   1.084408
    12  H    2.164083   1.081693   2.147183   3.398121   3.871440
    13  H    2.141594   3.393145   3.864803   3.409700   2.160655
    14  H    3.267161   3.902017   5.291634   6.025734   5.624644
    15  H    2.725772   2.831791   4.168447   5.115700   5.047145
    16  H    2.725772   2.831791   4.168447   5.115700   5.047145
                    6          7          8          9         10
     6  C    0.000000
     7  O    2.342590   0.000000
     8  C    3.652214   1.420486   0.000000
     9  H    3.401416   5.246312   6.117931   0.000000
    10  H    3.866029   4.581683   4.884052   2.482059   0.000000
    11  H    2.139585   4.481438   5.757794   2.489177   4.291236
    12  H    3.409114   2.736245   2.549921   4.290651   2.455335
    13  H    1.083419   2.526398   3.945259   4.307996   4.949201
    14  H    4.353525   2.012042   1.088841   7.101856   5.969849
    15  H    4.026971   2.087113   1.095569   6.134236   4.685029
    16  H    4.026971   2.087113   1.095569   6.134236   4.685029
                   11         12         13         14         15
    11  H    0.000000
    12  H    4.955845   0.000000
    13  H    2.484776   4.293994   0.000000
    14  H    6.492940   3.631956   4.405912   0.000000
    15  H    6.035384   2.349489   4.446984   1.781605   0.000000
    16  H    6.035384   2.349489   4.446984   1.781605   1.788514
                   16
    16  H    0.000000
 Symmetry turned off by external request.
 Stoichiometry    C7H8O
 Framework group  CS[SG(C7H6O),X(H2)]
 Deg. of freedom    28
 Full point group                 CS      NOp   2
 Rotational constants (GHZ):      5.0542245      1.5598817      1.2011297
 Leave Link  202 at Wed Apr 24 22:27:34 2013, MaxMem=    33554432 cpu:         0.0
 (Enter /mf/frisch/g09/l301.exe)
 Standard basis: Dummy (5D, 7F)
    16 basis functions,    16 primitive gaussians,    16 cartesian basis functions
    12 alpha electrons       12 beta electrons
       nuclear repulsion energy        57.1507221853 Hartrees.
 IExCor=    0 DFT=F Ex=HF Corr=None ExCW=0 ScaHFX=  1.000000
 ScaDFX=  1.000000  1.000000  1.000000  1.000000 ScalE2=  1.000000  1.000000
 IRadAn=      0 IRanWt=     -1 IRanGd=            0 ICorTp=0 IEmpDi=  4
 NAtoms=   16 NActive=   16 NUniq=   16 SFac= 1.00D+00 NAtFMM=   60 NAOKFM=F Big=F
 Integral buffers will be    131072 words long.
 Raffenetti 1 integral format.
 Two-electron integral symmetry is turned off.
 Leave Link  301 at Wed Apr 24 22:27:34 2013, MaxMem=    33554432 cpu:         0.1
 (Enter /mf/frisch/g09/l402.exe)
 UFF calculation of energy, first and second derivatives.
 Energy per function type:
 Direct Coulomb + vdW (small)                           0.023199881
 Direct Coulomb (large)                                 0.000000000
 Direct vdW (large)                                   823.682133508
 Non-direct Coulomb + vdW (small)                       0.000000000
 Non-direct Coulomb (large)                             0.000000000
 Non-direct vdW (large)                              -823.682133508
 Harmonic stretch III                                   0.004701312
 UFF 3-term bend                                        0.005708687
 UFF 2-term bend                                        0.003010020
 UFF torsion fixed V                                    0.000004755
 Energy per function class:
        Coulomb               0.000000000
    Vanderwaals               0.023199881
     Stretching               0.004701312
        Bending               0.008718708
        Torsion               0.000004755
 Energy=    3.662465547E-02 NIter=   0.
 Dipole moment=       0.000000       0.000000       0.000000
 Leave Link  402 at Wed Apr 24 22:27:34 2013, MaxMem=    33554432 cpu:         0.0
 (Enter /mf/frisch/g09/l716.exe)
 Dipole        = 0.00000000D+00 0.00000000D+00 0.00000000D+00
 Full mass-weighted force constant matrix:
 Low frequencies ---  -89.2347  -71.5675  -34.0394   -0.0011   -0.0007    0.0004
 Low frequencies ---   99.4261  213.3402  345.5683
 Diagonal vibrational polarizability:
        0.0000000       0.0000000       0.0000000
 Harmonic frequencies (cm**-1), IR intensities (KM/Mole), Raman scattering
 activities (A**4/AMU), depolarization ratios for plane and unpolarized
 incident light, reduced masses (AMU), force constants (mDyne/A),
 and normal coordinates:
                           1         2         3         4         5
                           A         A         A         A         A
       Frequencies ---    86.8799  208.9974  344.3601  420.4250  423.0281
    Reduced masses ---     2.6364    1.3937    2.5278    3.1416    3.1471
   Force constants ---     0.0117    0.0359    0.1766    0.3272    0.3318
    IR Intensities ---     0.0000    0.0000    0.0000    0.0000    0.0000
 Coord Atom Element:
   1     1     6          0.00000   0.00000   0.00000  -0.12239   0.00000
   2     1     6          0.00000   0.00000   0.00000   0.08728   0.00000
   3     1     6          0.15124   0.00129  -0.00579   0.00000   0.00101
   1     2     6          0.00000   0.00000   0.00000  -0.08238   0.00000
   2     2     6          0.00000   0.00000   0.00000   0.12674   0.00000
   3     2     6          0.16741  -0.01933  -0.14943   0.00000   0.23508
   1     3     6          0.00000   0.00000   0.00000   0.06383   0.00000
   2     3     6          0.00000   0.00000   0.00000   0.13021   0.00000
   3     3     6          0.01996   0.06075  -0.04695   0.00000  -0.20843
   1     4     6          0.00000   0.00000   0.00000   0.11517   0.00000
   2     4     6          0.00000   0.00000   0.00000   0.00706   0.00000
   3     4     6         -0.14452   0.03865   0.16827   0.00000  -0.00513
   1     5     6          0.00000   0.00000   0.00000   0.00559   0.00000
   2     5     6          0.00000   0.00000   0.00000  -0.07860   0.00000
   3     5     6         -0.10459  -0.06569  -0.03478   0.00000   0.20846
   1     6     6          0.00000   0.00000   0.00000  -0.12963   0.00000
   2     6     6          0.00000   0.00000   0.00000  -0.00679   0.00000
   3     6     6          0.08122  -0.05331  -0.16417   0.00000  -0.22600
   1     7     8          0.00000   0.00000   0.00000  -0.01109   0.00000
   2     7     8          0.00000   0.00000   0.00000   0.06872   0.00000
   3     7     8          0.09895   0.11097   0.20469   0.00000   0.02240
   1     8     6          0.00000   0.00000   0.00000   0.11198   0.00000
   2     8     6          0.00000   0.00000   0.00000  -0.26856   0.00000
   3     8     6         -0.21234  -0.07485  -0.01043   0.00000  -0.02598
   1     9     1          0.00000   0.00000   0.00000   0.23097   0.00000
   2     9     1          0.00000   0.00000   0.00000  -0.02968   0.00000
   3     9     1         -0.28441   0.07667   0.36860   0.00000  -0.01252
   1    10     1          0.00000   0.00000   0.00000   0.15155   0.00000
   2    10     1          0.00000   0.00000   0.00000   0.21051   0.00000
   3    10     1          0.01279   0.11007  -0.02166   0.00000  -0.40957
   1    11     1          0.00000   0.00000   0.00000   0.03114   0.00000
   2    11     1          0.00000   0.00000   0.00000  -0.20247   0.00000
   3    11     1         -0.21884  -0.11277  -0.02000   0.00000   0.40727
   1    12     1          0.00000   0.00000   0.00000  -0.08270   0.00000
   2    12     1          0.00000   0.00000   0.00000   0.09479   0.00000
   3    12     1          0.28834  -0.06018  -0.13684   0.00000   0.46193
   1    13     1          0.00000   0.00000   0.00000  -0.19862   0.00000
   2    13     1          0.00000   0.00000   0.00000  -0.06784   0.00000
   3    13     1          0.07484  -0.08142  -0.24654   0.00000  -0.43754
   1    14     1          0.00000   0.00000   0.00000   0.44488   0.00000
   2    14     1          0.00000   0.00000   0.00000  -0.28350   0.00000
   3    14     1         -0.61414   0.42277  -0.56799   0.00000   0.10743
   1    15     1          0.12781   0.27429   0.01720   0.02460   0.08230
   2    15     1          0.29347  -0.38565   0.38756  -0.39032  -0.09239
   3    15     1         -0.16678  -0.38842   0.13620   0.00691  -0.11137
   1    16     1         -0.12781  -0.27429  -0.01720   0.02460  -0.08230
   2    16     1         -0.29347   0.38565  -0.38756  -0.39032   0.09239
   3    16     1         -0.16678  -0.38842   0.13620  -0.00691  -0.11137
                           6         7         8         9        10
                           A         A         A         A         A
       Frequencies ---   537.7961  547.2743  694.9662  707.4986  789.1766
    Reduced masses ---     3.3296    4.8207    1.7172    5.2436    1.7657
   Force constants ---     0.5674    0.8507    0.4886    1.5464    0.6479
    IR Intensities ---     0.0000    0.0000    0.0000    0.0000    0.0000
 Coord Atom Element:
   1     1     6          0.00000   0.03185   0.00000   0.01855   0.00000
   2     1     6          0.00000  -0.06571   0.00000   0.17854   0.00000
   3     1     6          0.23508   0.00000   0.16298   0.00000   0.21105
   1     2     6          0.00000   0.12585   0.00000  -0.03602   0.00000
   2     2     6          0.00000  -0.04157   0.00000  -0.09639   0.00000
   3     2     6          0.07064   0.00000  -0.06852   0.00000  -0.06025
   1     3     6          0.00000   0.09634   0.00000  -0.06519   0.00000
   2     3     6          0.00000   0.02236   0.00000  -0.25327   0.00000
   3     3     6         -0.19286   0.00000   0.10870   0.00000  -0.02772
   1     4     6          0.00000   0.05864   0.00000  -0.03136   0.00000
   2     4     6          0.00000   0.18906   0.00000  -0.19287   0.00000
   3     4     6          0.23719   0.00000  -0.04988   0.00000  -0.10910
   1     5     6          0.00000   0.09133   0.00000   0.17985   0.00000
   2     5     6          0.00000   0.22878   0.00000  -0.00104   0.00000
   3     5     6         -0.17897   0.00000   0.11481   0.00000  -0.02602
   1     6     6          0.00000   0.10632   0.00000   0.15426   0.00000
   2     6     6          0.00000   0.11501   0.00000   0.06246   0.00000
   3     6     6          0.07369   0.00000  -0.07112   0.00000  -0.06480
   1     7     8          0.00000  -0.18113   0.00000  -0.12190   0.00000
   2     7     8          0.00000  -0.12477   0.00000   0.33244   0.00000
   3     7     8         -0.12127   0.00000  -0.02318   0.00000  -0.04845
   1     8     6          0.00000  -0.23865   0.00000  -0.05534   0.00000
   2     8     6          0.00000  -0.25863   0.00000  -0.04378   0.00000
   3     8     6          0.00018   0.00000   0.00029   0.00000  -0.00489
   1     9     1          0.00000  -0.03238   0.00000  -0.18258   0.00000
   2     9     1          0.00000   0.22629   0.00000  -0.15671   0.00000
   3     9     1          0.29569   0.00000  -0.51259   0.00000   0.59388
   1    10     1          0.00000   0.03480   0.00000  -0.11177   0.00000
   2    10     1          0.00000  -0.03628   0.00000  -0.30696   0.00000
   3    10     1         -0.55955   0.00000  -0.20447   0.00000   0.51812
   1    11     1          0.00000   0.08114   0.00000   0.16908   0.00000
   2    11     1          0.00000   0.30080   0.00000   0.10470   0.00000
   3    11     1         -0.52818   0.00000  -0.19017   0.00000   0.54967
   1    12     1          0.00000   0.13821   0.00000  -0.02308   0.00000
   2    12     1          0.00000  -0.08444   0.00000  -0.19091   0.00000
   3    12     1         -0.18801   0.00000  -0.54867   0.00000  -0.00692
   1    13     1          0.00000   0.16361   0.00000   0.11130   0.00000
   2    13     1          0.00000   0.17191   0.00000   0.02157   0.00000
   3    13     1         -0.15962   0.00000  -0.54068   0.00000   0.02719
   1    14     1          0.00000  -0.17486   0.00000   0.40575   0.00000
   2    14     1          0.00000  -0.27059   0.00000  -0.05901   0.00000
   3    14     1          0.15990   0.00000  -0.01058   0.00000   0.06023
   1    15     1         -0.05984  -0.28535  -0.02329  -0.19787  -0.03162
   2    15     1         -0.10245  -0.29073  -0.00334  -0.28236  -0.03332
   3    15     1         -0.00615   0.01754   0.01316  -0.01327  -0.00004
   1    16     1          0.05984  -0.28535   0.02329  -0.19787   0.03162
   2    16     1          0.10245  -0.29073   0.00334  -0.28236   0.03332
   3    16     1         -0.00615  -0.01754   0.01316   0.01327  -0.00004
                          11        12        13        14        15
                           A         A         A         A         A
       Frequencies ---   839.4322  877.4780  911.7040 1008.9902 1060.4206
    Reduced masses ---     6.0123    1.2506    5.4952    1.4441    3.2584
   Force constants ---     2.4961    0.5674    2.6912    0.8662    2.1588
    IR Intensities ---     0.0000    0.0000    0.0000    0.0000    0.0000
 Coord Atom Element:
   1     1     6          0.20754   0.00000   0.00511   0.00000  -0.03525
   2     1     6          0.01406   0.00000  -0.00032   0.00000  -0.04073
   3     1     6          0.00000   0.00414   0.00000  -0.09673   0.00000
   1     2     6          0.25310   0.00000   0.31287   0.00000  -0.03736
   2     2     6          0.16214   0.00000  -0.15276   0.00000  -0.11874
   3     2     6          0.00000  -0.07683   0.00000   0.10518   0.00000
   1     3     6         -0.13950   0.00000   0.23310   0.00000  -0.13994
   2     3     6          0.23746   0.00000  -0.17174   0.00000   0.01133
   3     3     6          0.00000  -0.07133   0.00000  -0.00568   0.00000
   1     4     6         -0.22708   0.00000   0.00234   0.00000   0.06453
   2     4     6          0.01908   0.00000   0.12429   0.00000   0.29434
   3     4     6          0.00000  -0.00252   0.00000  -0.08712   0.00000
   1     5     6         -0.15362   0.00000  -0.28123   0.00000   0.18398
   2     5     6         -0.15948   0.00000   0.01826   0.00000  -0.02002
   3     5     6          0.00000   0.07233   0.00000  -0.00503   0.00000
   1     6     6          0.20416   0.00000  -0.26701   0.00000  -0.03034
   2     6     6         -0.27298   0.00000  -0.01266   0.00000  -0.17533
   3     6     6          0.00000   0.07623   0.00000   0.10363   0.00000
   1     7     8         -0.06017   0.00000  -0.04091   0.00000  -0.03654
   2     7     8          0.10071   0.00000   0.15034   0.00000   0.03610
   3     7     8          0.00000  -0.00499   0.00000   0.02438   0.00000
   1     8     6         -0.05386   0.00000   0.04037   0.00000   0.05053
   2     8     6         -0.08355   0.00000   0.04569   0.00000   0.06143
   3     8     6          0.00000  -0.00013   0.00000   0.00873   0.00000
   1     9     1         -0.18239   0.00000  -0.04369   0.00000  -0.02542
   2     9     1         -0.00060   0.00000   0.15340   0.00000   0.36737
   3     9     1          0.00000   0.00835   0.00000   0.56142   0.00000
   1    10     1         -0.21976   0.00000   0.10105   0.00000  -0.40342
   2    10     1          0.19805   0.00000  -0.33246   0.00000  -0.20954
   3    10     1          0.00000   0.49230   0.00000  -0.01231   0.00000
   1    11     1         -0.19415   0.00000  -0.28766   0.00000   0.25681
   2    11     1         -0.04846   0.00000  -0.09731   0.00000  -0.25705
   3    11     1          0.00000  -0.47514   0.00000  -0.01445   0.00000
   1    12     1          0.30581   0.00000   0.34484   0.00000  -0.02376
   2    12     1          0.02301   0.00000  -0.15599   0.00000  -0.22859
   3    12     1          0.00000   0.50096   0.00000  -0.56464   0.00000
   1    13     1          0.24299   0.00000  -0.30743   0.00000  -0.23640
   2    13     1         -0.27898   0.00000  -0.02879   0.00000  -0.38227
   3    13     1          0.00000  -0.50650   0.00000  -0.56568   0.00000
   1    14     1          0.18316   0.00000   0.31853   0.00000   0.21555
   2    14     1         -0.09822   0.00000   0.04356   0.00000   0.06722
   3    14     1          0.00000   0.04480   0.00000  -0.06823   0.00000
   1    15     1         -0.13065  -0.00106  -0.00940   0.02409   0.06397
   2    15     1         -0.20079  -0.00995  -0.09577   0.01288  -0.03822
   3    15     1          0.00154  -0.00401  -0.02939   0.00155  -0.05000
   1    16     1         -0.13065   0.00106  -0.00940  -0.02409   0.06397
   2    16     1         -0.20079   0.00995  -0.09577  -0.01288  -0.03822
   3    16     1         -0.00154  -0.00401   0.02939   0.00155   0.05000
                          16        17        18        19        20
                           A         A         A         A         A
       Frequencies ---  1099.5310 1145.5268 1146.7298 1197.1611 1250.4419
    Reduced masses ---     1.2973    1.2916    2.5345    2.4807    2.3313
   Force constants ---     0.9241    0.9986    1.9636    2.0947    2.1477
    IR Intensities ---     0.0000    0.0000    0.0000    0.0000    0.0000
 Coord Atom Element:
   1     1     6          0.00000   0.00000   0.08899  -0.05803   0.00626
   2     1     6          0.00000   0.00000   0.07860   0.04686   0.07267
   3     1     6         -0.00013   0.01853   0.00000   0.00000   0.00000
   1     2     6          0.00000   0.00000   0.09456   0.16129  -0.10700
   2     2     6          0.00000   0.00000  -0.05771   0.14341   0.02818
   3     2     6          0.07966  -0.04238   0.00000   0.00000   0.00000
   1     3     6          0.00000   0.00000  -0.14325  -0.01248   0.10050
   2     3     6          0.00000   0.00000   0.05240  -0.05274  -0.09778
   3     3     6         -0.08409   0.08004   0.00000   0.00000   0.00000
   1     4     6          0.00000   0.00000   0.05722  -0.12168  -0.01596
   2     4     6          0.00000   0.00000  -0.01356  -0.07043   0.10195
   3     4     6          0.00133  -0.09313   0.00000   0.00000   0.00000
   1     5     6          0.00000   0.00000   0.02807   0.17796  -0.04312
   2     5     6          0.00000   0.00000  -0.10578   0.02960  -0.00152
   3     5     6          0.08145   0.08129   0.00000   0.00000   0.00000
   1     6     6          0.00000   0.00000  -0.11174  -0.11616   0.04393
   2     6     6          0.00000   0.00000   0.15055   0.00834  -0.12483
   3     6     6         -0.07920  -0.04405   0.00000   0.00000   0.00000
   1     7     8          0.00000   0.00000   0.12562  -0.03468   0.13497
   2     7     8          0.00000   0.00000   0.01592  -0.05477   0.08263
   3     7     8          0.00165  -0.00440   0.00000   0.00000   0.00000
   1     8     6          0.00000   0.00000  -0.11444   0.05722  -0.05842
   2     8     6          0.00000   0.00000  -0.06087  -0.06353  -0.12490
   3     8     6          0.00266  -0.00500   0.00000   0.00000   0.00000
   1     9     1          0.00000   0.00000   0.27371  -0.52026  -0.22231
   2     9     1          0.00000   0.00000  -0.08618   0.03573   0.19163
   3     9     1         -0.00782   0.57948   0.00000   0.00000   0.00000
   1    10     1          0.00000   0.00000  -0.30913  -0.13606   0.14045
   2    10     1          0.00000   0.00000  -0.06794  -0.16826  -0.10229
   3    10     1          0.50932  -0.49683   0.00000   0.00000   0.00000
   1    11     1          0.00000   0.00000   0.10635   0.20929  -0.06524
   2    11     1          0.00000   0.00000  -0.47225   0.04399   0.04735
   3    11     1         -0.50129  -0.50719   0.00000   0.00000   0.00000
   1    12     1          0.00000   0.00000   0.15866   0.17396  -0.15354
   2    12     1          0.00000   0.00000  -0.27470   0.26227   0.14798
   3    12     1         -0.47813   0.25177   0.00000   0.00000   0.00000
   1    13     1          0.00000   0.00000  -0.16985  -0.38114  -0.02674
   2    13     1          0.00000   0.00000   0.14014  -0.20403  -0.22697
   3    13     1          0.48176   0.26382   0.00000   0.00000   0.00000
   1    14     1          0.00000   0.00000  -0.44405  -0.17973  -0.60046
   2    14     1          0.00000   0.00000  -0.06389  -0.07093  -0.14052
   3    14     1         -0.04491   0.03113   0.00000   0.00000   0.00000
   1    15     1          0.00915  -0.01300  -0.20583   0.16754  -0.16769
   2    15     1         -0.00252   0.00138   0.02627   0.23800   0.25636
   3    15     1         -0.00252   0.00185   0.08244   0.07185   0.22381
   1    16     1         -0.00915   0.01300  -0.20583   0.16754  -0.16769
   2    16     1          0.00252  -0.00138   0.02627   0.23800   0.25636
   3    16     1         -0.00252   0.00185  -0.08244  -0.07185  -0.22381
                          21        22        23        24        25
                           A         A         A         A         A
       Frequencies ---  1258.8463 1319.0925 1378.3994 1416.2649 1509.9500
    Reduced masses ---     1.3280    1.6689    1.6557    1.6177    1.0558
   Force constants ---     1.2399    1.7110    1.8534    1.9118    1.4183
    IR Intensities ---     0.0000    0.0000    0.0000    0.0000    0.0000
 Coord Atom Element:
   1     1     6          0.00000   0.01112   0.00234   0.00021   0.00634
   2     1     6          0.00000  -0.01191  -0.02021   0.02269   0.05557
   3     1     6          0.00886   0.00000   0.00000   0.00000   0.00000
   1     2     6          0.00000  -0.01556   0.02529   0.01724  -0.00649
   2     2     6          0.00000   0.02596  -0.08943   0.14059  -0.00104
   3     2     6         -0.01102   0.00000   0.00000   0.00000   0.00000
   1     3     6          0.00000   0.04414  -0.04755  -0.06309   0.01035
   2     3     6          0.00000   0.01062   0.08835  -0.09875  -0.00669
   3     3     6          0.00179   0.00000   0.00000   0.00000   0.00000
   1     4     6          0.00000  -0.05658   0.03398   0.09593   0.00051
   2     4     6          0.00000  -0.02242  -0.08915  -0.00270   0.00393
   3     4     6         -0.00039   0.00000   0.00000   0.00000   0.00000
   1     5     6          0.00000   0.06379   0.02407  -0.05384  -0.01315
   2     5     6          0.00000   0.02825   0.11981   0.05041  -0.00391
   3     5     6          0.00156   0.00000   0.00000   0.00000   0.00000
   1     6     6          0.00000  -0.06175  -0.05839   0.00334   0.01436
   2     6     6          0.00000  -0.02853  -0.08523  -0.04844  -0.00769
   3     6     6          0.00169   0.00000   0.00000   0.00000   0.00000
   1     7     8          0.00000   0.13126   0.01397   0.03046  -0.01586
   2     7     8          0.00000  -0.02929   0.05452  -0.03945   0.01057
   3     7     8         -0.06351   0.00000   0.00000   0.00000   0.00000
   1     8     6          0.00000  -0.09894   0.00860  -0.02127  -0.00847
   2     8     6          0.00000   0.09619  -0.02679   0.01817   0.00229
   3     8     6          0.15304   0.00000   0.00000   0.00000   0.00000
   1     9     1          0.00000  -0.30592   0.30277   0.45721   0.00204
   2     9     1          0.00000   0.04913  -0.19603  -0.11262   0.00532
   3     9     1          0.00430   0.00000   0.00000   0.00000   0.00000
   1    10     1          0.00000   0.17487   0.08368  -0.47790   0.03190
   2    10     1          0.00000   0.12369   0.24236  -0.48880   0.00607
   3    10     1         -0.02019   0.00000   0.00000   0.00000   0.00000
   1    11     1          0.00000   0.06567  -0.07262  -0.11654  -0.02582
   2    11     1          0.00000   0.09608   0.65435   0.29458   0.03034
   3    11     1          0.00153   0.00000   0.00000   0.00000   0.00000
   1    12     1          0.00000  -0.02289   0.06962  -0.01139   0.01568
   2    12     1          0.00000   0.02972  -0.26213   0.30462  -0.13949
   3    12     1          0.04756   0.00000   0.00000   0.00000   0.00000
   1    13     1          0.00000  -0.22302  -0.29098  -0.02740  -0.05365
   2    13     1          0.00000  -0.16695  -0.30026  -0.09078  -0.07542
   3    13     1          0.01252   0.00000   0.00000   0.00000   0.00000
   1    14     1          0.00000   0.17426  -0.13518   0.06102  -0.54296
   2    14     1          0.00000   0.11543  -0.03105   0.02189   0.02021
   3    14     1         -0.57597   0.00000   0.00000   0.00000   0.00000
   1    15     1          0.53178  -0.29571  -0.02006  -0.05635   0.39177
   2    15     1         -0.10717  -0.47545   0.12481  -0.13938  -0.26022
   3    15     1         -0.15682  -0.14370   0.08168  -0.04844  -0.33706
   1    16     1         -0.53178  -0.29571  -0.02006  -0.05635   0.39177
   2    16     1          0.10717  -0.47545   0.12481  -0.13938  -0.26022
   3    16     1         -0.15682   0.14370  -0.08168   0.04844   0.33706
                          26        27        28        29        30
                           A         A         A         A         A
       Frequencies ---  1526.8251 1645.8507 1739.4067 1753.5434 1792.1534
    Reduced masses ---     1.0202    1.7687    1.6232    1.7318    2.1954
   Force constants ---     1.4013    2.8228    2.8935    3.1375    4.1544
    IR Intensities ---     0.0000    0.0000    0.0000    0.0000    0.0000
 Coord Atom Element:
   1     1     6          0.00000  -0.17656   0.06668  -0.07932   0.18733
   2     1     6          0.00000  -0.10204  -0.14039   0.07888  -0.10004
   3     1     6          0.00066   0.00000   0.00000   0.00000   0.00000
   1     2     6          0.00000   0.06787   0.00949   0.02657  -0.07435
   2     2     6          0.00000  -0.01440   0.00280   0.00797   0.00613
   3     2     6          0.00030   0.00000   0.00000   0.00000   0.00000
   1     3     6          0.00000   0.00127  -0.05340   0.00931   0.00677
   2     3     6          0.00000   0.05407  -0.05389  -0.03141   0.05677
   3     3     6          0.00066   0.00000   0.00000   0.00000   0.00000
   1     4     6          0.00000   0.00457  -0.06005  -0.06270   0.12488
   2     4     6          0.00000  -0.01392   0.00701   0.01832  -0.05359
   3     4     6         -0.00001   0.00000   0.00000   0.00000   0.00000
   1     5     6          0.00000   0.04711   0.02247  -0.01813  -0.03686
   2     5     6          0.00000  -0.01768   0.10766   0.02424  -0.01307
   3     5     6         -0.00009   0.00000   0.00000   0.00000   0.00000
   1     6     6          0.00000  -0.03343  -0.03479   0.08849  -0.04260
   2     6     6          0.00000  -0.05096  -0.01305   0.01781   0.05136
   3     6     6          0.00025   0.00000   0.00000   0.00000   0.00000
   1     7     8          0.00000   0.04394  -0.00678  -0.05192  -0.09122
   2     7     8          0.00000   0.07574   0.07834  -0.06083   0.03229
   3     7     8          0.02873   0.00000   0.00000   0.00000   0.00000
   1     8     6          0.00000   0.05298   0.01145   0.16232   0.12887
   2     8     6          0.00000   0.01311  -0.01688   0.05574   0.01659
   3     8     6          0.00012   0.00000   0.00000   0.00000   0.00000
   1     9     1          0.00000  -0.10447   0.38781   0.30837  -0.57394
   2     9     1          0.00000   0.01494  -0.14633  -0.10355   0.16442
   3     9     1          0.00042   0.00000   0.00000   0.00000   0.00000
   1    10     1          0.00000  -0.20792   0.25461   0.13338  -0.27281
   2    10     1          0.00000  -0.10949   0.22477   0.05491  -0.16140
   3    10     1         -0.00414   0.00000   0.00000   0.00000   0.00000
   1    11     1          0.00000   0.02909   0.16770   0.02734  -0.08902
   2    11     1          0.00000   0.18147  -0.46435  -0.23206   0.10552
   3    11     1          0.00013   0.00000   0.00000   0.00000   0.00000
   1    12     1          0.00000   0.07632  -0.11601   0.09704  -0.16061
   2    12     1          0.00000   0.07749   0.59501  -0.23982   0.16905
   3    12     1          0.03372   0.00000   0.00000   0.00000   0.00000
   1    13     1          0.00000   0.58155  -0.03411  -0.16376  -0.22863
   2    13     1          0.00000   0.48759  -0.00669  -0.24136  -0.05898
   3    13     1         -0.00258   0.00000   0.00000   0.00000   0.00000
   1    14     1          0.00000  -0.40193  -0.17302  -0.38114  -0.37187
   2    14     1          0.00000   0.03522  -0.02126   0.11263   0.04742
   3    14     1         -0.52473   0.00000   0.00000   0.00000   0.00000
   1    15     1         -0.35388  -0.11965   0.03746  -0.35207  -0.17827
   2    15     1         -0.48582  -0.15991  -0.07673  -0.21400  -0.17583
   3    15     1          0.00939   0.03937  -0.02909   0.22997   0.14722
   1    16     1          0.35388  -0.11965   0.03746  -0.35207  -0.17827
   2    16     1          0.48582  -0.15991  -0.07673  -0.21400  -0.17583
   3    16     1          0.00939  -0.03937   0.02909  -0.22997  -0.14722
                          31        32        33        34        35
                           A         A         A         A         A
       Frequencies ---  1838.5038 1870.0568 1920.1049 2053.3136 2837.0526
    Reduced masses ---     1.9027    2.0658    2.4254    3.0522    1.0525
   Force constants ---     3.7892    4.2564    5.2685    7.5819    4.9912
    IR Intensities ---     0.0000    0.0000    0.0000    0.0000    0.0000
 Coord Atom Element:
   1     1     6          0.06284   0.01174   0.17296   0.06848  -0.00196
   2     1     6          0.05644   0.02853  -0.00612   0.28524  -0.00168
   3     1     6          0.00000   0.00000   0.00000   0.00000   0.00000
   1     2     6          0.03399   0.00089  -0.10454   0.00828   0.00001
   2     2     6          0.03768   0.10204   0.09295  -0.20899   0.00045
   3     2     6          0.00000   0.00000   0.00000   0.00000   0.00000
   1     3     6         -0.13962  -0.07572   0.12318   0.02906   0.00000
   2     3     6         -0.13692  -0.04952  -0.00195   0.08652  -0.00003
   3     3     6          0.00000   0.00000   0.00000   0.00000   0.00000
   1     4     6          0.05523   0.13013  -0.15786  -0.00691   0.00005
   2     4     6          0.08221  -0.07446   0.03248  -0.04411  -0.00001
   3     4     6          0.00000   0.00000   0.00000   0.00000   0.00000
   1     5     6          0.02738  -0.05305   0.09354   0.00968   0.00003
   2     5     6         -0.11270   0.18653  -0.00768   0.08049  -0.00007
   3     5     6          0.00000   0.00000   0.00000   0.00000   0.00000
   1     6     6         -0.07578  -0.04255  -0.14902  -0.08122   0.00024
   2     6     6         -0.01122  -0.12032  -0.06198  -0.13295   0.00019
   3     6     6          0.00000   0.00000   0.00000   0.00000   0.00000
   1     7     8         -0.03164   0.00259  -0.04430  -0.03434   0.00690
   2     7     8         -0.03260  -0.01456  -0.00497  -0.09639   0.00206
   3     7     8          0.00000   0.00000   0.00000   0.00000   0.00000
   1     8     6          0.03776  -0.00443   0.02678   0.02459  -0.05980
   2     8     6          0.00952   0.00239   0.00274   0.01205  -0.02026
   3     8     6          0.00000   0.00000   0.00000   0.00000   0.00000
   1     9     1         -0.00120  -0.36019   0.43080  -0.04789   0.00016
   2     9     1          0.17382   0.06025  -0.17441  -0.07998   0.00026
   3     9     1          0.00000   0.00000   0.00000   0.00000   0.00000
   1    10     1          0.53042   0.12994  -0.08403  -0.17044   0.00018
   2    10     1          0.46563   0.14968  -0.28738  -0.02717  -0.00008
   3    10     1          0.00000   0.00000   0.00000   0.00000   0.00000
   1    11     1         -0.09359   0.08539   0.14497   0.08173  -0.00015
   2    11     1          0.48939  -0.53376   0.11586  -0.12729  -0.00008
   3    11     1          0.00000   0.00000   0.00000   0.00000   0.00000
   1    12     1          0.04923   0.16092  -0.03020  -0.23175   0.00304
   2    12     1          0.10884  -0.54586  -0.56246   0.71329  -0.00178
   3    12     1          0.00000   0.00000   0.00000   0.00000   0.00000
   1    13     1          0.18671   0.30696   0.26903   0.37017   0.00056
   2    13     1          0.26478   0.12846   0.36752   0.21017  -0.00159
   3    13     1          0.00000   0.00000   0.00000   0.00000   0.00000
   1    14     1         -0.06249   0.03747  -0.03367   0.00743   0.04089
   2    14     1          0.02108   0.00293   0.00819   0.02807   0.58085
   3    14     1          0.00000   0.00000   0.00000   0.00000   0.00000
   1    15     1         -0.06420  -0.00441  -0.02698  -0.04135   0.28875
   2    15     1         -0.05658   0.03701   0.00552  -0.05954  -0.17765
   3    15     1          0.04731   0.01020   0.04596   0.02667   0.46206
   1    16     1         -0.06420  -0.00441  -0.02698  -0.04135   0.28875
   2    16     1         -0.05658   0.03701   0.00552  -0.05954  -0.17765
   3    16     1         -0.04731  -0.01020  -0.04596  -0.02667  -0.46206
                          36        37        38        39        40
                           A         A         A         A         A
       Frequencies ---  2946.8988 2948.0526 3033.3134 3035.0708 3036.4744
    Reduced masses ---     1.1260    1.1235    1.1108    1.1084    1.1170
   Force constants ---     5.7612    5.7532    6.0220    6.0156    6.0680
    IR Intensities ---     0.0000    0.0000    0.0000    0.0000    0.0000
 Coord Atom Element:
   1     1     6         -0.00275   0.00000   0.00930  -0.00177  -0.00383
   2     1     6          0.00057   0.00000   0.00029   0.00345  -0.00222
   3     1     6          0.00000   0.00034   0.00000   0.00000   0.00000
   1     2     6         -0.00018   0.00000  -0.07082  -0.00310   0.05566
   2     2     6         -0.00083   0.00000  -0.01649   0.00410   0.00903
   3     2     6          0.00000  -0.00010   0.00000   0.00000   0.00000
   1     3     6          0.00002   0.00000  -0.00160   0.04903  -0.02223
   2     3     6          0.00010   0.00000   0.01266  -0.04628   0.02405
   3     3     6          0.00000   0.00008   0.00000   0.00000   0.00000
   1     4     6         -0.00007   0.00000  -0.00011  -0.02182  -0.01208
   2     4     6          0.00003   0.00000  -0.01665  -0.05121  -0.05631
   3     4     6          0.00000   0.00003   0.00000   0.00000   0.00000
   1     5     6          0.00000   0.00000  -0.05566  -0.01011  -0.02909
   2     5     6          0.00003   0.00000  -0.01156   0.00567  -0.00396
   3     5     6          0.00000  -0.00005   0.00000   0.00000   0.00000
   1     6     6          0.00004   0.00000  -0.00884   0.02385  -0.02301
   2     6     6          0.00030   0.00000   0.01561  -0.02755   0.03087
   3     6     6          0.00000   0.00013   0.00000   0.00000   0.00000
   1     7     8          0.00281   0.00000  -0.00191   0.00073   0.00029
   2     7     8         -0.00293   0.00000   0.00022  -0.00038   0.00005
   3     7     8          0.00000  -0.00219   0.00000   0.00000   0.00000
   1     8     6         -0.03308   0.00000   0.00067  -0.00016  -0.00028
   2     8     6          0.09810   0.00000  -0.00008   0.00021  -0.00014
   3     8     6          0.00000   0.10257   0.00000   0.00000   0.00000
   1     9     1         -0.00011   0.00000   0.04211   0.19203   0.16804
   2     9     1         -0.00005   0.00000   0.17107   0.55475   0.55575
   3     9     1          0.00000   0.00005   0.00000   0.00000   0.00000
   1    10     1          0.00019   0.00000   0.07186  -0.48176   0.20597
   2    10     1         -0.00029   0.00000  -0.10508   0.51371  -0.22652
   3    10     1          0.00000   0.00015   0.00000   0.00000   0.00000
   1    11     1         -0.00050   0.00000   0.58643   0.09465   0.31271
   2    11     1          0.00002   0.00000   0.12157   0.00173   0.06103
   3    11     1          0.00000  -0.00008   0.00000   0.00000   0.00000
   1    12     1          0.00310   0.00000   0.72091   0.00532  -0.53558
   2    12     1         -0.00775   0.00000   0.16160  -0.01351  -0.11092
   3    12     1          0.00000  -0.00024   0.00000   0.00000   0.00000
   1    13     1          0.00332   0.00000   0.12291  -0.25062   0.26011
   2    13     1         -0.00362   0.00000  -0.15410   0.27973  -0.30150
   3    13     1          0.00000  -0.00012   0.00000   0.00000   0.00000
   1    14     1         -0.00515   0.00000  -0.00079   0.00020   0.00035
   2    14     1         -0.80767   0.00000   0.00050  -0.00124   0.00086
   3    14     1          0.00000  -0.02150   0.00000   0.00000   0.00000
   1    15     1          0.19163  -0.31575  -0.00011   0.00045  -0.00054
   2    15     1         -0.15222   0.22942  -0.00295  -0.00018   0.00249
   3    15     1          0.32941  -0.58496  -0.00265   0.00083   0.00095
   1    16     1          0.19163   0.31575  -0.00011   0.00045  -0.00054
   2    16     1         -0.15222  -0.22942  -0.00295  -0.00018   0.00249
   3    16     1         -0.32941  -0.58496   0.00265  -0.00083  -0.00095
                          41        42
                           A         A
       Frequencies ---  3038.4758 3040.3753
    Reduced masses ---     1.1231    1.1244
   Force constants ---     6.1094    6.1239
    IR Intensities ---     0.0000    0.0000
 Coord Atom Element:
   1     1     6         -0.00477  -0.00921
   2     1     6         -0.00116   0.00610
   3     1     6          0.00000   0.00000
   1     2     6          0.03422   0.01273
   2     2     6          0.01181  -0.00353
   3     2     6          0.00000   0.00000
   1     3     6          0.01798  -0.03495
   2     3     6         -0.03330   0.03694
   3     3     6          0.00000   0.00000
   1     4     6          0.02000   0.00670
   2     4     6          0.05100  -0.00673
   3     4     6          0.00000   0.00000
   1     5     6         -0.06553  -0.03044
   2     5     6         -0.01921   0.00252
   3     5     6          0.00000   0.00000
   1     6     6          0.00512   0.05576
   2     6     6          0.00577  -0.05987
   3     6     6          0.00000   0.00000
   1     7     8          0.00078   0.00203
   2     7     8          0.00003  -0.00068
   3     7     8          0.00000   0.00000
   1     8     6         -0.00033  -0.00044
   2     8     6          0.00003   0.00038
   3     8     6          0.00000   0.00000
   1     9     1         -0.16787  -0.00276
   2     9     1         -0.49774   0.04115
   3     9     1          0.00000   0.00000
   1    10     1         -0.23306   0.33706
   2    10     1          0.28265  -0.36889
   3    10     1          0.00000   0.00000
   1    11     1          0.65366   0.27048
   2    11     1          0.14593   0.03927
   3    11     1          0.00000   0.00000
   1    12     1         -0.35032  -0.09976
   2    12     1         -0.08583  -0.01014
   3    12     1          0.00000   0.00000
   1    13     1          0.00509  -0.54124
   2    13     1         -0.02625   0.60025
   3    13     1          0.00000   0.00000
   1    14     1          0.00036   0.00041
   2    14     1         -0.00017  -0.00209
   3    14     1          0.00000   0.00000
   1    15     1          0.00007   0.00086
   2    15     1          0.00153  -0.00037
   3    15     1          0.00133   0.00168
   1    16     1          0.00007   0.00086
   2    16     1          0.00153  -0.00037
   3    16     1         -0.00133  -0.00168
 Harmonic frequencies (cm**-1), IR intensities (KM/Mole), Raman scattering
 activities (A**4/AMU), depolarization ratios for plane and unpolarized
 incident light, reduced masses (AMU), force constants (mDyne/A),
 and normal coordinates:
                      1                      2                      3
                      A                      A                      A
 Frequencies --     86.8799               208.9974               344.3601
 Red. masses --      2.6364                 1.3937                 2.5278
 Frc consts  --      0.0117                 0.0359                 0.1766
 IR Inten    --      0.0000                 0.0000                 0.0000
  Atom  AN      X      Y      Z        X      Y      Z        X      Y      Z
     1   6     0.00   0.00   0.15     0.00   0.00   0.00     0.00   0.00  -0.01
     2   6     0.00   0.00   0.17     0.00   0.00  -0.02     0.00   0.00  -0.15
     3   6     0.00   0.00   0.02     0.00   0.00   0.06     0.00   0.00  -0.05
     4   6     0.00   0.00  -0.14     0.00   0.00   0.04     0.00   0.00   0.17
     5   6     0.00   0.00  -0.10     0.00   0.00  -0.07     0.00   0.00  -0.03
     6   6     0.00   0.00   0.08     0.00   0.00  -0.05     0.00   0.00  -0.16
     7   8     0.00   0.00   0.10     0.00   0.00   0.11     0.00   0.00   0.20
     8   6     0.00   0.00  -0.21     0.00   0.00  -0.07     0.00   0.00  -0.01
     9   1     0.00   0.00  -0.28     0.00   0.00   0.08     0.00   0.00   0.37
    10   1     0.00   0.00   0.01     0.00   0.00   0.11     0.00   0.00  -0.02
    11   1     0.00   0.00  -0.22     0.00   0.00  -0.11     0.00   0.00  -0.02
    12   1     0.00   0.00   0.29     0.00   0.00  -0.06     0.00   0.00  -0.14
    13   1     0.00   0.00   0.07     0.00   0.00  -0.08     0.00   0.00  -0.25
    14   1     0.00   0.00  -0.61     0.00   0.00   0.42     0.00   0.00  -0.57
    15   1     0.13   0.29  -0.17     0.27  -0.39  -0.39     0.02   0.39   0.14
    16   1    -0.13  -0.29  -0.17    -0.27   0.39  -0.39    -0.02  -0.39   0.14
                      4                      5                      6
                      A                      A                      A
 Frequencies --    420.4250               423.0281               537.7961
 Red. masses --      3.1416                 3.1471                 3.3296
 Frc consts  --      0.3272                 0.3318                 0.5674
 IR Inten    --      0.0000                 0.0000                 0.0000
  Atom  AN      X      Y      Z        X      Y      Z        X      Y      Z
     1   6    -0.12   0.09   0.00     0.00   0.00   0.00     0.00   0.00   0.24
     2   6    -0.08   0.13   0.00     0.00   0.00   0.24     0.00   0.00   0.07
     3   6     0.06   0.13   0.00     0.00   0.00  -0.21     0.00   0.00  -0.19
     4   6     0.12   0.01   0.00     0.00   0.00  -0.01     0.00   0.00   0.24
     5   6     0.01  -0.08   0.00     0.00   0.00   0.21     0.00   0.00  -0.18
     6   6    -0.13  -0.01   0.00     0.00   0.00  -0.23     0.00   0.00   0.07
     7   8    -0.01   0.07   0.00     0.00   0.00   0.02     0.00   0.00  -0.12
     8   6     0.11  -0.27   0.00     0.00   0.00  -0.03     0.00   0.00   0.00
     9   1     0.23  -0.03   0.00     0.00   0.00  -0.01     0.00   0.00   0.30
    10   1     0.15   0.21   0.00     0.00   0.00  -0.41     0.00   0.00  -0.56
    11   1     0.03  -0.20   0.00     0.00   0.00   0.41     0.00   0.00  -0.53
    12   1    -0.08   0.09   0.00     0.00   0.00   0.46     0.00   0.00  -0.19
    13   1    -0.20  -0.07   0.00     0.00   0.00  -0.44     0.00   0.00  -0.16
    14   1     0.44  -0.28   0.00     0.00   0.00   0.11     0.00   0.00   0.16
    15   1     0.02  -0.39   0.01     0.08  -0.09  -0.11    -0.06  -0.10  -0.01
    16   1     0.02  -0.39  -0.01    -0.08   0.09  -0.11     0.06   0.10  -0.01
                      7                      8                      9
                      A                      A                      A
 Frequencies --    547.2743               694.9662               707.4986
 Red. masses --      4.8207                 1.7172                 5.2436
 Frc consts  --      0.8507                 0.4886                 1.5464
 IR Inten    --      0.0000                 0.0000                 0.0000
  Atom  AN      X      Y      Z        X      Y      Z        X      Y      Z
     1   6     0.03  -0.07   0.00     0.00   0.00   0.16     0.02   0.18   0.00
     2   6     0.13  -0.04   0.00     0.00   0.00  -0.07    -0.04  -0.10   0.00
     3   6     0.10   0.02   0.00     0.00   0.00   0.11    -0.07  -0.25   0.00
     4   6     0.06   0.19   0.00     0.00   0.00  -0.05    -0.03  -0.19   0.00
     5   6     0.09   0.23   0.00     0.00   0.00   0.11     0.18   0.00   0.00
     6   6     0.11   0.12   0.00     0.00   0.00  -0.07     0.15   0.06   0.00
     7   8    -0.18  -0.12   0.00     0.00   0.00  -0.02    -0.12   0.33   0.00
     8   6    -0.24  -0.26   0.00     0.00   0.00   0.00    -0.06  -0.04   0.00
     9   1    -0.03   0.23   0.00     0.00   0.00  -0.51    -0.18  -0.16   0.00
    10   1     0.03  -0.04   0.00     0.00   0.00  -0.20    -0.11  -0.31   0.00
    11   1     0.08   0.30   0.00     0.00   0.00  -0.19     0.17   0.10   0.00
    12   1     0.14  -0.08   0.00     0.00   0.00  -0.55    -0.02  -0.19   0.00
    13   1     0.16   0.17   0.00     0.00   0.00  -0.54     0.11   0.02   0.00
    14   1    -0.17  -0.27   0.00     0.00   0.00  -0.01     0.41  -0.06   0.00
    15   1    -0.29  -0.29   0.02    -0.02   0.00   0.01    -0.20  -0.28  -0.01
    16   1    -0.29  -0.29  -0.02     0.02   0.00   0.01    -0.20  -0.28   0.01
                     10                     11                     12
                      A                      A                      A
 Frequencies --    789.1766               839.4322               877.4780
 Red. masses --      1.7657                 6.0123                 1.2506
 Frc consts  --      0.6479                 2.4961                 0.5674
 IR Inten    --      0.0000                 0.0000                 0.0000
  Atom  AN      X      Y      Z        X      Y      Z        X      Y      Z
     1   6     0.00   0.00   0.21     0.21   0.01   0.00     0.00   0.00   0.00
     2   6     0.00   0.00  -0.06     0.25   0.16   0.00     0.00   0.00  -0.08
     3   6     0.00   0.00  -0.03    -0.14   0.24   0.00     0.00   0.00  -0.07
     4   6     0.00   0.00  -0.11    -0.23   0.02   0.00     0.00   0.00   0.00
     5   6     0.00   0.00  -0.03    -0.15  -0.16   0.00     0.00   0.00   0.07
     6   6     0.00   0.00  -0.06     0.20  -0.27   0.00     0.00   0.00   0.08
     7   8     0.00   0.00  -0.05    -0.06   0.10   0.00     0.00   0.00   0.00
     8   6     0.00   0.00   0.00    -0.05  -0.08   0.00     0.00   0.00   0.00
     9   1     0.00   0.00   0.59    -0.18   0.00   0.00     0.00   0.00   0.01
    10   1     0.00   0.00   0.52    -0.22   0.20   0.00     0.00   0.00   0.49
    11   1     0.00   0.00   0.55    -0.19  -0.05   0.00     0.00   0.00  -0.48
    12   1     0.00   0.00  -0.01     0.31   0.02   0.00     0.00   0.00   0.50
    13   1     0.00   0.00   0.03     0.24  -0.28   0.00     0.00   0.00  -0.51
    14   1     0.00   0.00   0.06     0.18  -0.10   0.00     0.00   0.00   0.04
    15   1    -0.03  -0.03   0.00    -0.13  -0.20   0.00     0.00  -0.01   0.00
    16   1     0.03   0.03   0.00    -0.13  -0.20   0.00     0.00   0.01   0.00
                     13                     14                     15
                      A                      A                      A
 Frequencies --    911.7040              1008.9902              1060.4206
 Red. masses --      5.4952                 1.4441                 3.2584
 Frc consts  --      2.6912                 0.8662                 2.1588
 IR Inten    --      0.0000                 0.0000                 0.0000
  Atom  AN      X      Y      Z        X      Y      Z        X      Y      Z
     1   6     0.01   0.00   0.00     0.00   0.00  -0.10    -0.04  -0.04   0.00
     2   6     0.31  -0.15   0.00     0.00   0.00   0.11    -0.04  -0.12   0.00
     3   6     0.23  -0.17   0.00     0.00   0.00  -0.01    -0.14   0.01   0.00
     4   6     0.00   0.12   0.00     0.00   0.00  -0.09     0.06   0.29   0.00
     5   6    -0.28   0.02   0.00     0.00   0.00  -0.01     0.18  -0.02   0.00
     6   6    -0.27  -0.01   0.00     0.00   0.00   0.10    -0.03  -0.18   0.00
     7   8    -0.04   0.15   0.00     0.00   0.00   0.02    -0.04   0.04   0.00
     8   6     0.04   0.05   0.00     0.00   0.00   0.01     0.05   0.06   0.00
     9   1    -0.04   0.15   0.00     0.00   0.00   0.56    -0.03   0.37   0.00
    10   1     0.10  -0.33   0.00     0.00   0.00  -0.01    -0.40  -0.21   0.00
    11   1    -0.29  -0.10   0.00     0.00   0.00  -0.01     0.26  -0.26   0.00
    12   1     0.34  -0.16   0.00     0.00   0.00  -0.56    -0.02  -0.23   0.00
    13   1    -0.31  -0.03   0.00     0.00   0.00  -0.57    -0.24  -0.38   0.00
    14   1     0.32   0.04   0.00     0.00   0.00  -0.07     0.22   0.07   0.00
    15   1    -0.01  -0.10  -0.03     0.02   0.01   0.00     0.06  -0.04  -0.05
    16   1    -0.01  -0.10   0.03    -0.02  -0.01   0.00     0.06  -0.04   0.05
                     16                     17                     18
                      A                      A                      A
 Frequencies --   1099.5310              1145.5268              1146.7298
 Red. masses --      1.2973                 1.2916                 2.5345
 Frc consts  --      0.9241                 0.9986                 1.9636
 IR Inten    --      0.0000                 0.0000                 0.0000
  Atom  AN      X      Y      Z        X      Y      Z        X      Y      Z
     1   6     0.00   0.00   0.00     0.00   0.00   0.02     0.09   0.08   0.00
     2   6     0.00   0.00   0.08     0.00   0.00  -0.04     0.09  -0.06   0.00
     3   6     0.00   0.00  -0.08     0.00   0.00   0.08    -0.14   0.05   0.00
     4   6     0.00   0.00   0.00     0.00   0.00  -0.09     0.06  -0.01   0.00
     5   6     0.00   0.00   0.08     0.00   0.00   0.08     0.03  -0.11   0.00
     6   6     0.00   0.00  -0.08     0.00   0.00  -0.04    -0.11   0.15   0.00
     7   8     0.00   0.00   0.00     0.00   0.00   0.00     0.13   0.02   0.00
     8   6     0.00   0.00   0.00     0.00   0.00  -0.01    -0.11  -0.06   0.00
     9   1     0.00   0.00  -0.01     0.00   0.00   0.58     0.27  -0.09   0.00
    10   1     0.00   0.00   0.51     0.00   0.00  -0.50    -0.31  -0.07   0.00
    11   1     0.00   0.00  -0.50     0.00   0.00  -0.51     0.11  -0.47   0.00
    12   1     0.00   0.00  -0.48     0.00   0.00   0.25     0.16  -0.27   0.00
    13   1     0.00   0.00   0.48     0.00   0.00   0.26    -0.17   0.14   0.00
    14   1     0.00   0.00  -0.04     0.00   0.00   0.03    -0.44  -0.06   0.00
    15   1     0.01   0.00   0.00    -0.01   0.00   0.00    -0.21   0.03   0.08
    16   1    -0.01   0.00   0.00     0.01   0.00   0.00    -0.21   0.03  -0.08
                     19                     20                     21
                      A                      A                      A
 Frequencies --   1197.1611              1250.4419              1258.8463
 Red. masses --      2.4807                 2.3313                 1.3280
 Frc consts  --      2.0947                 2.1477                 1.2399
 IR Inten    --      0.0000                 0.0000                 0.0000
  Atom  AN      X      Y      Z        X      Y      Z        X      Y      Z
     1   6    -0.06   0.05   0.00     0.01   0.07   0.00     0.00   0.00   0.01
     2   6     0.16   0.14   0.00    -0.11   0.03   0.00     0.00   0.00  -0.01
     3   6    -0.01  -0.05   0.00     0.10  -0.10   0.00     0.00   0.00   0.00
     4   6    -0.12  -0.07   0.00    -0.02   0.10   0.00     0.00   0.00   0.00
     5   6     0.18   0.03   0.00    -0.04   0.00   0.00     0.00   0.00   0.00
     6   6    -0.12   0.01   0.00     0.04  -0.12   0.00     0.00   0.00   0.00
     7   8    -0.03  -0.05   0.00     0.13   0.08   0.00     0.00   0.00  -0.06
     8   6     0.06  -0.06   0.00    -0.06  -0.12   0.00     0.00   0.00   0.15
     9   1    -0.52   0.04   0.00    -0.22   0.19   0.00     0.00   0.00   0.00
    10   1    -0.14  -0.17   0.00     0.14  -0.10   0.00     0.00   0.00  -0.02
    11   1     0.21   0.04   0.00    -0.07   0.05   0.00     0.00   0.00   0.00
    12   1     0.17   0.26   0.00    -0.15   0.15   0.00     0.00   0.00   0.05
    13   1    -0.38  -0.20   0.00    -0.03  -0.23   0.00     0.00   0.00   0.01
    14   1    -0.18  -0.07   0.00    -0.60  -0.14   0.00     0.00   0.00  -0.58
    15   1     0.17   0.24   0.07    -0.17   0.26   0.22     0.53  -0.11  -0.16
    16   1     0.17   0.24  -0.07    -0.17   0.26  -0.22    -0.53   0.11  -0.16
                     22                     23                     24
                      A                      A                      A
 Frequencies --   1319.0925              1378.3994              1416.2649
 Red. masses --      1.6689                 1.6557                 1.6177
 Frc consts  --      1.7110                 1.8534                 1.9118
 IR Inten    --      0.0000                 0.0000                 0.0000
  Atom  AN      X      Y      Z        X      Y      Z        X      Y      Z
     1   6     0.01  -0.01   0.00     0.00  -0.02   0.00     0.00   0.02   0.00
     2   6    -0.02   0.03   0.00     0.03  -0.09   0.00     0.02   0.14   0.00
     3   6     0.04   0.01   0.00    -0.05   0.09   0.00    -0.06  -0.10   0.00
     4   6    -0.06  -0.02   0.00     0.03  -0.09   0.00     0.10   0.00   0.00
     5   6     0.06   0.03   0.00     0.02   0.12   0.00    -0.05   0.05   0.00
     6   6    -0.06  -0.03   0.00    -0.06  -0.09   0.00     0.00  -0.05   0.00
     7   8     0.13  -0.03   0.00     0.01   0.05   0.00     0.03  -0.04   0.00
     8   6    -0.10   0.10   0.00     0.01  -0.03   0.00    -0.02   0.02   0.00
     9   1    -0.31   0.05   0.00     0.30  -0.20   0.00     0.46  -0.11   0.00
    10   1     0.17   0.12   0.00     0.08   0.24   0.00    -0.48  -0.49   0.00
    11   1     0.07   0.10   0.00    -0.07   0.65   0.00    -0.12   0.29   0.00
    12   1    -0.02   0.03   0.00     0.07  -0.26   0.00    -0.01   0.30   0.00
    13   1    -0.22  -0.17   0.00    -0.29  -0.30   0.00    -0.03  -0.09   0.00
    14   1     0.17   0.12   0.00    -0.14  -0.03   0.00     0.06   0.02   0.00
    15   1    -0.30  -0.48  -0.14    -0.02   0.12   0.08    -0.06  -0.14  -0.05
    16   1    -0.30  -0.48   0.14    -0.02   0.12  -0.08    -0.06  -0.14   0.05
                     25                     26                     27
                      A                      A                      A
 Frequencies --   1509.9500              1526.8251              1645.8507
 Red. masses --      1.0558                 1.0202                 1.7687
 Frc consts  --      1.4183                 1.4013                 2.8228
 IR Inten    --      0.0000                 0.0000                 0.0000
  Atom  AN      X      Y      Z        X      Y      Z        X      Y      Z
     1   6     0.01   0.06   0.00     0.00   0.00   0.00    -0.18  -0.10   0.00
     2   6    -0.01   0.00   0.00     0.00   0.00   0.00     0.07  -0.01   0.00
     3   6     0.01  -0.01   0.00     0.00   0.00   0.00     0.00   0.05   0.00
     4   6     0.00   0.00   0.00     0.00   0.00   0.00     0.00  -0.01   0.00
     5   6    -0.01   0.00   0.00     0.00   0.00   0.00     0.05  -0.02   0.00
     6   6     0.01  -0.01   0.00     0.00   0.00   0.00    -0.03  -0.05   0.00
     7   8    -0.02   0.01   0.00     0.00   0.00   0.03     0.04   0.08   0.00
     8   6    -0.01   0.00   0.00     0.00   0.00   0.00     0.05   0.01   0.00
     9   1     0.00   0.01   0.00     0.00   0.00   0.00    -0.10   0.01   0.00
    10   1     0.03   0.01   0.00     0.00   0.00   0.00    -0.21  -0.11   0.00
    11   1    -0.03   0.03   0.00     0.00   0.00   0.00     0.03   0.18   0.00
    12   1     0.02  -0.14   0.00     0.00   0.00   0.03     0.08   0.08   0.00
    13   1    -0.05  -0.08   0.00     0.00   0.00   0.00     0.58   0.49   0.00
    14   1    -0.54   0.02   0.00     0.00   0.00  -0.52    -0.40   0.04   0.00
    15   1     0.39  -0.26  -0.34    -0.35  -0.49   0.01    -0.12  -0.16   0.04
    16   1     0.39  -0.26   0.34     0.35   0.49   0.01    -0.12  -0.16  -0.04
                     28                     29                     30
                      A                      A                      A
 Frequencies --   1739.4067              1753.5434              1792.1534
 Red. masses --      1.6232                 1.7318                 2.1954
 Frc consts  --      2.8935                 3.1375                 4.1544
 IR Inten    --      0.0000                 0.0000                 0.0000
  Atom  AN      X      Y      Z        X      Y      Z        X      Y      Z
     1   6     0.07  -0.14   0.00    -0.08   0.08   0.00     0.19  -0.10   0.00
     2   6     0.01   0.00   0.00     0.03   0.01   0.00    -0.07   0.01   0.00
     3   6    -0.05  -0.05   0.00     0.01  -0.03   0.00     0.01   0.06   0.00
     4   6    -0.06   0.01   0.00    -0.06   0.02   0.00     0.12  -0.05   0.00
     5   6     0.02   0.11   0.00    -0.02   0.02   0.00    -0.04  -0.01   0.00
     6   6    -0.03  -0.01   0.00     0.09   0.02   0.00    -0.04   0.05   0.00
     7   8    -0.01   0.08   0.00    -0.05  -0.06   0.00    -0.09   0.03   0.00
     8   6     0.01  -0.02   0.00     0.16   0.06   0.00     0.13   0.02   0.00
     9   1     0.39  -0.15   0.00     0.31  -0.10   0.00    -0.57   0.16   0.00
    10   1     0.25   0.22   0.00     0.13   0.05   0.00    -0.27  -0.16   0.00
    11   1     0.17  -0.46   0.00     0.03  -0.23   0.00    -0.09   0.11   0.00
    12   1    -0.12   0.60   0.00     0.10  -0.24   0.00    -0.16   0.17   0.00
    13   1    -0.03  -0.01   0.00    -0.16  -0.24   0.00    -0.23  -0.06   0.00
    14   1    -0.17  -0.02   0.00    -0.38   0.11   0.00    -0.37   0.05   0.00
    15   1     0.04  -0.08  -0.03    -0.35  -0.21   0.23    -0.18  -0.18   0.15
    16   1     0.04  -0.08   0.03    -0.35  -0.21  -0.23    -0.18  -0.18  -0.15
                     31                     32                     33
                      A                      A                      A
 Frequencies --   1838.5038              1870.0568              1920.1049
 Red. masses --      1.9027                 2.0658                 2.4254
 Frc consts  --      3.7892                 4.2564                 5.2685
 IR Inten    --      0.0000                 0.0000                 0.0000
  Atom  AN      X      Y      Z        X      Y      Z        X      Y      Z
     1   6     0.06   0.06   0.00     0.01   0.03   0.00     0.17  -0.01   0.00
     2   6     0.03   0.04   0.00     0.00   0.10   0.00    -0.10   0.09   0.00
     3   6    -0.14  -0.14   0.00    -0.08  -0.05   0.00     0.12   0.00   0.00
     4   6     0.06   0.08   0.00     0.13  -0.07   0.00    -0.16   0.03   0.00
     5   6     0.03  -0.11   0.00    -0.05   0.19   0.00     0.09  -0.01   0.00
     6   6    -0.08  -0.01   0.00    -0.04  -0.12   0.00    -0.15  -0.06   0.00
     7   8    -0.03  -0.03   0.00     0.00  -0.01   0.00    -0.04   0.00   0.00
     8   6     0.04   0.01   0.00     0.00   0.00   0.00     0.03   0.00   0.00
     9   1     0.00   0.17   0.00    -0.36   0.06   0.00     0.43  -0.17   0.00
    10   1     0.53   0.47   0.00     0.13   0.15   0.00    -0.08  -0.29   0.00
    11   1    -0.09   0.49   0.00     0.09  -0.53   0.00     0.14   0.12   0.00
    12   1     0.05   0.11   0.00     0.16  -0.55   0.00    -0.03  -0.56   0.00
    13   1     0.19   0.26   0.00     0.31   0.13   0.00     0.27   0.37   0.00
    14   1    -0.06   0.02   0.00     0.04   0.00   0.00    -0.03   0.01   0.00
    15   1    -0.06  -0.06   0.05     0.00   0.04   0.01    -0.03   0.01   0.05
    16   1    -0.06  -0.06  -0.05     0.00   0.04  -0.01    -0.03   0.01  -0.05
                     34                     35                     36
                      A                      A                      A
 Frequencies --   2053.3136              2837.0526              2946.8988
 Red. masses --      3.0522                 1.0525                 1.1260
 Frc consts  --      7.5819                 4.9912                 5.7612
 IR Inten    --      0.0000                 0.0000                 0.0000
  Atom  AN      X      Y      Z        X      Y      Z        X      Y      Z
     1   6     0.07   0.29   0.00     0.00   0.00   0.00     0.00   0.00   0.00
     2   6     0.01  -0.21   0.00     0.00   0.00   0.00     0.00   0.00   0.00
     3   6     0.03   0.09   0.00     0.00   0.00   0.00     0.00   0.00   0.00
     4   6    -0.01  -0.04   0.00     0.00   0.00   0.00     0.00   0.00   0.00
     5   6     0.01   0.08   0.00     0.00   0.00   0.00     0.00   0.00   0.00
     6   6    -0.08  -0.13   0.00     0.00   0.00   0.00     0.00   0.00   0.00
     7   8    -0.03  -0.10   0.00     0.01   0.00   0.00     0.00   0.00   0.00
     8   6     0.02   0.01   0.00    -0.06  -0.02   0.00    -0.03   0.10   0.00
     9   1    -0.05  -0.08   0.00     0.00   0.00   0.00     0.00   0.00   0.00
    10   1    -0.17  -0.03   0.00     0.00   0.00   0.00     0.00   0.00   0.00
    11   1     0.08  -0.13   0.00     0.00   0.00   0.00     0.00   0.00   0.00
    12   1    -0.23   0.71   0.00     0.00   0.00   0.00     0.00  -0.01   0.00
    13   1     0.37   0.21   0.00     0.00   0.00   0.00     0.00   0.00   0.00
    14   1     0.01   0.03   0.00     0.04   0.58   0.00    -0.01  -0.81   0.00
    15   1    -0.04  -0.06   0.03     0.29  -0.18   0.46     0.19  -0.15   0.33
    16   1    -0.04  -0.06  -0.03     0.29  -0.18  -0.46     0.19  -0.15  -0.33
                     37                     38                     39
                      A                      A                      A
 Frequencies --   2948.0526              3033.3134              3035.0708
 Red. masses --      1.1235                 1.1108                 1.1084
 Frc consts  --      5.7532                 6.0220                 6.0156
 IR Inten    --      0.0000                 0.0000                 0.0000
  Atom  AN      X      Y      Z        X      Y      Z        X      Y      Z
     1   6     0.00   0.00   0.00     0.01   0.00   0.00     0.00   0.00   0.00
     2   6     0.00   0.00   0.00    -0.07  -0.02   0.00     0.00   0.00   0.00
     3   6     0.00   0.00   0.00     0.00   0.01   0.00     0.05  -0.05   0.00
     4   6     0.00   0.00   0.00     0.00  -0.02   0.00    -0.02  -0.05   0.00
     5   6     0.00   0.00   0.00    -0.06  -0.01   0.00    -0.01   0.01   0.00
     6   6     0.00   0.00   0.00    -0.01   0.02   0.00     0.02  -0.03   0.00
     7   8     0.00   0.00   0.00     0.00   0.00   0.00     0.00   0.00   0.00
     8   6     0.00   0.00   0.10     0.00   0.00   0.00     0.00   0.00   0.00
     9   1     0.00   0.00   0.00     0.04   0.17   0.00     0.19   0.55   0.00
    10   1     0.00   0.00   0.00     0.07  -0.11   0.00    -0.48   0.51   0.00
    11   1     0.00   0.00   0.00     0.59   0.12   0.00     0.09   0.00   0.00
    12   1     0.00   0.00   0.00     0.72   0.16   0.00     0.01  -0.01   0.00
    13   1     0.00   0.00   0.00     0.12  -0.15   0.00    -0.25   0.28   0.00
    14   1     0.00   0.00  -0.02     0.00   0.00   0.00     0.00   0.00   0.00
    15   1    -0.32   0.23  -0.58     0.00   0.00   0.00     0.00   0.00   0.00
    16   1     0.32  -0.23  -0.58     0.00   0.00   0.00     0.00   0.00   0.00
                     40                     41                     42
                      A                      A                      A
 Frequencies --   3036.4744              3038.4758              3040.3753
 Red. masses --      1.1170                 1.1231                 1.1244
 Frc consts  --      6.0680                 6.1094                 6.1239
 IR Inten    --      0.0000                 0.0000                 0.0000
  Atom  AN      X      Y      Z        X      Y      Z        X      Y      Z
     1   6     0.00   0.00   0.00     0.00   0.00   0.00    -0.01   0.01   0.00
     2   6     0.06   0.01   0.00     0.03   0.01   0.00     0.01   0.00   0.00
     3   6    -0.02   0.02   0.00     0.02  -0.03   0.00    -0.03   0.04   0.00
     4   6    -0.01  -0.06   0.00     0.02   0.05   0.00     0.01  -0.01   0.00
     5   6    -0.03   0.00   0.00    -0.07  -0.02   0.00    -0.03   0.00   0.00
     6   6    -0.02   0.03   0.00     0.01   0.01   0.00     0.06  -0.06   0.00
     7   8     0.00   0.00   0.00     0.00   0.00   0.00     0.00   0.00   0.00
     8   6     0.00   0.00   0.00     0.00   0.00   0.00     0.00   0.00   0.00
     9   1     0.17   0.56   0.00    -0.17  -0.50   0.00     0.00   0.04   0.00
    10   1     0.21  -0.23   0.00    -0.23   0.28   0.00     0.34  -0.37   0.00
    11   1     0.31   0.06   0.00     0.65   0.15   0.00     0.27   0.04   0.00
    12   1    -0.54  -0.11   0.00    -0.35  -0.09   0.00    -0.10  -0.01   0.00
    13   1     0.26  -0.30   0.00     0.01  -0.03   0.00    -0.54   0.60   0.00
    14   1     0.00   0.00   0.00     0.00   0.00   0.00     0.00   0.00   0.00
    15   1     0.00   0.00   0.00     0.00   0.00   0.00     0.00   0.00   0.00
    16   1     0.00   0.00   0.00     0.00   0.00   0.00     0.00   0.00   0.00

 -------------------
 - Thermochemistry -
 -------------------
 Temperature   298.150 Kelvin.  Pressure   1.00000 Atm.
 Atom     1 has atomic number  6 and mass  12.00000
 Atom     2 has atomic number  6 and mass  12.00000
 Atom     3 has atomic number  6 and mass  12.00000
 Atom     4 has atomic number  6 and mass  12.00000
 Atom     5 has atomic number  6 and mass  12.00000
 Atom     6 has atomic number  6 and mass  12.00000
 Atom     7 has atomic number  8 and mass  15.99491
 Atom     8 has atomic number  6 and mass  12.00000
 Atom     9 has atomic number  1 and mass   1.00783
 Atom    10 has atomic number  1 and mass   1.00783
 Atom    11 has atomic number  1 and mass   1.00783
 Atom    12 has atomic number  1 and mass   1.00783
 Atom    13 has atomic number  1 and mass   1.00783
 Atom    14 has atomic number  1 and mass   1.00783
 Atom    15 has atomic number  1 and mass   1.00783
 Atom    16 has atomic number  1 and mass   1.00783
 Molecular mass:   108.05751 amu.
 Principal axes and moments of inertia in atomic units:
                           1         2         3
     Eigenvalues --   357.075791156.973131502.53648
           X            0.48745   0.87315   0.00000
           Y            0.87315  -0.48745   0.00000
           Z            0.00000   0.00000   1.00000
 This molecule is an asymmetric top.
 Rotational symmetry number  1.
 Rotational temperatures (Kelvin)      0.24256     0.07486     0.05765
 Rotational constants (GHZ):           5.05422     1.55988     1.20113
 Zero-point vibrational energy     372253.0 (Joules/Mol)
                                   88.97060 (Kcal/Mol)
 Warning -- explicit consideration of   7 degrees of freedom as
           vibrations may cause significant error
 Vibrational temperatures:    125.00   300.70   495.46   604.90   608.64
          (Kelvin)            773.77   787.40   999.90  1017.93  1135.45
                             1207.75  1262.49  1311.74  1451.71  1525.71
                             1581.98  1648.16  1649.89  1722.45  1799.10
                             1811.20  1897.88  1983.21  2037.69  2172.48
                             2196.76  2368.01  2502.62  2522.95  2578.51
                             2645.19  2690.59  2762.60  2954.26  4081.88
                             4239.92  4241.58  4364.26  4366.78  4368.80
                             4371.68  4374.42
 
 Zero-point correction=                           0.141784 (Hartree/Particle)
 Thermal correction to Energy=                    0.147962
 Thermal correction to Enthalpy=                  0.148906
 Thermal correction to Gibbs Free Energy=         0.111100
 Sum of electronic and zero-point Energies=              0.178408
 Sum of electronic and thermal Energies=                 0.184587
 Sum of electronic and thermal Enthalpies=               0.185531
 Sum of electronic and thermal Free Energies=            0.147725
 
                     E (Thermal)             CV                S
                      KCal/Mol        Cal/Mol-Kelvin    Cal/Mol-Kelvin
 Total                   92.848             23.113             79.570
 Electronic               0.000              0.000              0.000
 Translational            0.889              2.981             39.949
 Rotational               0.889              2.981             27.920
 Vibrational             91.070             17.151             11.701
 Vibration     1          0.601              1.958              3.729
 Vibration     2          0.642              1.827              2.052
 Vibration     3          0.723              1.587              1.192
 Vibration     4          0.783              1.426              0.891
 Vibration     5          0.785              1.420              0.882
 Vibration     6          0.893              1.166              0.570
 Vibration     7          0.902              1.146              0.550
                       Q            Log10(Q)             Ln(Q)
 Total Bot       0.790051D-51        -51.102345       -117.667497
 Total V=0       0.129862D+15         14.113483         32.497496
 Vib (Bot)       0.634478D-64        -64.197583       -147.820398
 Vib (Bot)    1  0.236781D+01          0.374346          0.861965
 Vib (Bot)    2  0.950710D+00         -0.021952         -0.050546
 Vib (Bot)    3  0.537725D+00         -0.269440         -0.620407
 Vib (Bot)    4  0.417512D+00         -0.379331         -0.873443
 Vib (Bot)    5  0.414115D+00         -0.382879         -0.881611
 Vib (Bot)    6  0.295214D+00         -0.529863         -1.220055
 Vib (Bot)    7  0.287503D+00         -0.541358         -1.246523
 Vib (V=0)       0.104290D+02          1.018245          2.344595
 Vib (V=0)    1  0.292002D+01          0.465386          1.071592
 Vib (V=0)    2  0.157417D+01          0.197053          0.453730
 Vib (V=0)    3  0.123427D+01          0.091409          0.210478
 Vib (V=0)    4  0.115140D+01          0.061225          0.140975
 Vib (V=0)    5  0.114922D+01          0.060405          0.139087
 Vib (V=0)    6  0.108065D+01          0.033684          0.077560
 Vib (V=0)    7  0.107676D+01          0.032121          0.073961
 Electronic      0.100000D+01          0.000000          0.000000
 Translational   0.441507D+08          7.644938         17.603120
[...]
       41439.0000        0.289653D+03
       41440.0000        0.298006D+03
       41441.0000        0.288999D+03
       41442.0000        0.362973D+03
       41443.0000        0.352367D+03
       41444.0000        0.260206D+03
       41445.0000        0.338055D+03
       41446.0000        0.629286D+03
       41447.0000        0.160964D+04
       41448.0000        0.231319D+04
       41449.0000        0.111192D+04
       41450.0000        0.321264D+03
       41451.0000        0.282658D+03
       41452.0000        0.351946D+03
       41453.0000        0.493473D+03
       41454.0000        0.584647D+03
       41455.0000        0.446909D+03
       41456.0000        0.395475D+03
       41457.0000        0.426179D+03
       41458.0000        0.451966D+03
       41459.0000        0.391530D+03
       41460.0000        0.315559D+03
       41461.0000        0.262660D+03
       41462.0000        0.257364D+03
       41463.0000        0.310019D+03
       41464.0000        0.363755D+03
       41465.0000        0.453489D+03
       41466.0000        0.536383D+03
       41467.0000        0.578961D+03
       41468.0000        0.602989D+03
       41469.0000        0.574045D+03
       41470.0000        0.647242D+03
       41471.0000        0.692440D+03
       41472.0000        0.489104D+03
       41473.0000        0.290575D+03
       41474.0000        0.240632D+03
       41475.0000        0.218973D+03
       41476.0000        0.225544D+03
       41477.0000        0.247656D+03
       41478.0000        0.226671D+03
       41479.0000        0.287483D+03
       41480.0000        0.406262D+03
       41481.0000        0.567788D+03
       41482.0000        0.838547D+03
       41483.0000        0.998753D+03
       41484.0000        0.167098D+04
       41485.0000        0.187818D+04
       41486.0000        0.925629D+03
       41487.0000        0.620938D+03
       41488.0000        0.698013D+03
       41489.0000        0.596929D+03
       41490.0000        0.471648D+03
       41491.0000        0.345362D+03
       41492.0000        0.273062D+03
       41493.0000        0.194784D+03
       41494.0000        0.167109D+03
       41495.0000        0.369569D+03
       41496.0000        0.735777D+03
       41497.0000        0.571603D+03
       41498.0000        0.398468D+03
       41499.0000        0.470161D+03
       41500.0000        0.364154D+03
 ------------------------------------------------------------
 Leave Link  718 at Wed Apr 24 22:28:56 2013, MaxMem=    33554432 cpu:        81.8
 (Enter /mf/frisch/g09/l103.exe)

 GradGradGradGradGradGradGradGradGradGradGradGradGradGradGradGradGradGrad
 Berny optimization.
 Search for a local minimum.
 Step number   1 out of a maximum of    2
 All quantities printed in internal units (Hartrees-Bohrs-Radians)
 Second derivative matrix not updated -- analytic derivatives used.
 ITU=  0
     Eigenvalues ---    0.00114   0.00272   0.01713   0.01831   0.02038
     Eigenvalues ---    0.03187   0.03729   0.04261   0.07282   0.08276
     Eigenvalues ---    0.08641   0.09011   0.09283   0.09505   0.10029
     Eigenvalues ---    0.10104   0.10520   0.14024   0.15441   0.16402
     Eigenvalues ---    0.17856   0.19607   0.21425   0.24208   0.25871
     Eigenvalues ---    0.31881   0.33376   0.40091   0.49050   0.53062
     Eigenvalues ---    0.68104   0.73809   0.82973   0.88246   1.02177
     Eigenvalues ---    1.13616   1.20830   1.27617   1.39274   1.43503
     Eigenvalues ---    1.72619   1.85107
 Angle between quadratic step and forces=  63.68 degrees.
 Linear search not attempted -- first point.
 TrRot= -0.000850  0.001988  0.000000  0.000067  0.000000  0.000067
 Variable       Old X    -DE/DX   Delta X   Delta X   Delta X     New X
                                 (Linear)    (Quad)   (Total)
    X1       -0.00950  -0.00515   0.00000  -0.01942  -0.02041  -0.02990
    Y1        0.99692   0.05890   0.00000   0.05739   0.05938   1.05630
    Z1        0.00000   0.00000   0.00000   0.00000   0.00000   0.00000
    X2        1.75848   0.00218   0.00000  -0.00420  -0.00492   1.75356
    Y2       -0.96462  -0.00695   0.00000   0.01559   0.01781  -0.94682
    Z2        0.00000   0.00000   0.00000   0.00000   0.00000   0.00000
    X3        0.92020   0.01445   0.00000   0.01878   0.01839   0.93859
    Y3       -3.46918  -0.00625   0.00000   0.00621   0.00833  -3.46085
    Z3        0.00000   0.00000   0.00000   0.00000   0.00000   0.00000
    X4       -1.64502  -0.00445   0.00000   0.00712   0.00681  -1.63821
    Y4       -4.03510   0.00466   0.00000   0.01125   0.01302  -4.02209
    Z4        0.00000   0.00000   0.00000   0.00000   0.00000   0.00000
    X5       -3.39866  -0.01205   0.00000  -0.01178  -0.01236  -3.41101
    Y5       -2.05959  -0.00840   0.00000  -0.01196  -0.01043  -2.07002
    Z5        0.00000   0.00000   0.00000   0.00000   0.00000   0.00000
    X6       -2.59671   0.01211   0.00000  -0.01308  -0.01399  -2.61071
    Y6        0.43736   0.00135   0.00000   0.00846   0.01010   0.44745
    Z6        0.00000   0.00000   0.00000   0.00000   0.00000   0.00000
    X7        0.59299  -0.00874   0.00000  -0.01541  -0.01673   0.57626
    Y7        3.50702  -0.04218   0.00000  -0.00282  -0.00076   3.50626
    Z7        0.00000   0.00000   0.00000   0.00000   0.00000   0.00000
    X8        3.18437  -0.00600   0.00000   0.00518   0.00377   3.18815
    Y8        4.20728   0.00022   0.00000  -0.00578  -0.00337   4.20391
    Z8        0.00000   0.00000   0.00000   0.00000   0.00000   0.00000
    X9       -2.27741   0.00022   0.00000   0.01625   0.01620  -2.26121
    Y9       -5.98245   0.00066   0.00000   0.01046   0.01215  -5.97030
    Z9        0.00000   0.00000   0.00000   0.00000   0.00000   0.00000
   X10        2.30467  -0.00213   0.00000   0.00605   0.00587   2.31054
   Y10       -4.98022  -0.00025   0.00000  -0.00029   0.00201  -4.97822
   Z10        0.00000   0.00000   0.00000   0.00000   0.00000   0.00000
   X11       -5.40634   0.00146   0.00000  -0.00262  -0.00314  -5.40948
   Y11       -2.47017  -0.00078   0.00000  -0.03743  -0.03616  -2.50633
   Z11        0.00000   0.00000   0.00000   0.00000   0.00000   0.00000
   X12        3.76534   0.00029   0.00000   0.00352   0.00275   3.76809
   Y12       -0.57623  -0.00561   0.00000  -0.03381  -0.03132  -0.60755
   Z12        0.00000   0.00000   0.00000   0.00000   0.00000   0.00000
   X13       -3.93321  -0.00459   0.00000  -0.07694  -0.07805  -4.01126
   Y13        1.98831  -0.00407   0.00000  -0.04843  -0.04698   1.94134
   Z13        0.00000   0.00000   0.00000   0.00000   0.00000   0.00000
   X14        3.21060   0.00806   0.00000   0.11744   0.11575   3.32635
   Y14        6.26472   0.01130   0.00000   0.02992   0.03235   6.29707
   Z14        0.00000   0.00000   0.00000   0.00000   0.00000   0.00000
   X15        4.15669   0.00217   0.00000  -0.00866  -0.00997   4.14671
   Y15        3.51079  -0.00130   0.00000  -0.01560  -0.01306   3.49773
   Z15        1.68990   0.00914   0.00000   0.04099   0.04099   1.73089
   X16        4.15669   0.00217   0.00000  -0.00866  -0.00997   4.14671
   Y16        3.51079  -0.00130   0.00000  -0.01560  -0.01306   3.49773
   Z16       -1.68990  -0.00914   0.00000  -0.04099  -0.04099  -1.73089
         Item               Value     Threshold  Converged?
 Maximum Force            0.058902     0.000450     NO 
 RMS     Force            0.011676     0.000300     NO 
 Maximum Displacement     0.115752     0.001800     NO 
 RMS     Displacement     0.027069     0.001200     NO 
 Predicted change in Energy=-3.367311D-03
 GradGradGradGradGradGradGradGradGradGradGradGradGradGradGradGradGradGrad

 Leave Link  103 at Wed Apr 24 22:28:56 2013, MaxMem=    33554432 cpu:         0.0
 (Enter /mf/frisch/g09/l9999.exe)

 Test job not archived.
 1\1\GINC-ALTUV\Freq\RUFF\ZDO\C7H8O1\FRISCH\24-Apr-2013\0\\#p test NOSY
 MM UFF FREQ=(HPMODES,VIBROT,readfcht)\\Gaussian Test Job 846: Anisole 
 Frank-Condon\\0,1\C,-0.0050251784,0.5275463926,0.\C,0.9305474076,-0.51
 04572244,0.\C,0.4869514538,-1.8358123562,0.\C,-0.8705076987,-2.1352854
 248,0.\C,-1.798491825,-1.0898877983,0.\C,-1.374120891,0.2314395907,0.\
 O,0.3137976895,1.8558339789,0.\C,1.6850986426,2.2263948611,0.\H,-1.205
 1535139,-3.1657774311,0.\H,1.2195813558,-2.635421513,0.\H,-2.860911325
 5,-1.3071567981,0.\H,1.9925343891,-0.3049252682,0.\H,-2.0813669817,1.0
 52170204,0.\H,1.6989754088,3.3151478218,0.\H,2.1996238431,1.8578314543
 ,0.8942568056\H,2.1996238431,1.8578314543,-0.8942568056\\Version=ES64L
 -G09RevD.01\HF=0.0366247\RMSD=0.000e+00\RMSF=1.168e-02\ZeroPoint=0.141
 7837\Thermal=0.1479622\Dipole=0.,0.,0.\PG=CS [SG(C7H6O1),X(H2)]\NImag=
 0\\1.04695086,0.03733663,1.19130788,0.,0.,0.18936825,-0.36860023,0.054
 22676,0.,0.90750236,0.05957678,-0.34636518,0.,0.03936250,0.87370233,0.
 ,0.,-0.07587689,0.,0.,0.14477747,0.03581283,0.03227879,0.,-0.25987538,
 -0.06453068,0.,0.85338750,-0.01198654,-0.01080370,0.,-0.03537029,-0.39
 663652,0.,-0.02884887,0.85708113,0.,0.,0.00827270,0.,0.,-0.06627814,0.
 ,0.,0.13834440,-0.00122407,-0.01238377,0.,0.01043249,-0.00349175,0.,-0
 .40565565,-0.04918508,0.,0.83103100,-0.01238377,-0.03530022,0.,-0.0472
 8865,0.01582750,0.,-0.01940858,-0.25142236,0.,0.01585942,0.87485917,0.
 ,0.,-0.00546442,0.,0.,0.00648579,0.,0.,-0.06441614,0.,0.,0.13882754,0.
 01028452,-0.04755205,0.,-0.03952306,-0.00901936,0.,-0.00822803,0.03729
 624,0.,-0.31975617,0.06866911,0.,0.88085556,-0.00330308,0.01527230,0.,
 -0.00901936,0.00104191,0.,-0.00730390,0.03310732,0.,0.09901299,-0.3374
 9675,0.,0.01123362,0.82793060,0.,0.,0.00898840,0.,0.,-0.00527942,0.,0.
 ,0.00798950,0.,0.,-0.06650922,0.,0.,0.13801198,-0.41202500,-0.01512003
 ,0.,-0.00796826,-0.00718195,0.,-0.01766180,0.02305322,0.,0.03644162,0.
 03234869,0.,-0.26097990,-0.06475322,0.,0.85015450,-0.01485982,-0.29361
 195,0.,0.03684249,0.03320684,0.,0.02305322,-0.02251500,0.,-0.01170396,
 -0.01038943,0.,-0.03497656,-0.39657105,0.,-0.03157851,0.89789531,0.,0.
 ,-0.07944696,0.,0.,0.00729015,0.,0.,-0.00512046,0.,0.,0.00653018,0.,0.
 ,-0.06350078,0.,0.,0.14737584,-0.30672907,-0.06096695,0.,0.04732441,0.
 04265440,0.,-0.00000152,0.00000763,0.,-0.00000479,0.00000445,0.,-0.000
 08158,-0.00011764,0.,0.01346447,-0.06225508,0.,0.70503354,-0.01947071,
 -0.57344798,0.,-0.01135906,-0.01023814,0.,0.00000763,-0.00016394,0.,0.
 00000445,0.00000889,0.,-0.00011764,-0.00016128,0.,-0.00323182,0.014942
 81,0.,0.11684119,0.70980423,0.,0.,-0.07270198,0.,0.,0.01970662,0.,0.,0
 .00438685,0.,0.,-0.00000611,0.,0.,0.00406772,0.,0.,0.00311175,0.,0.,0.
 12014628,0.01343879,-0.00322565,0.,-0.00015916,-0.00882200,0.,-0.00000
 758,0.00000042,0.,0.00000233,0.00000987,0.,0.00000977,0.00001379,0.,-0
 .00043526,-0.00029798,0.,-0.45469049,-0.06941877,0.,0.78421230,-0.0497
 3170,0.01193688,0.,-0.00882200,-0.02972544,0.,0.00000042,-0.00000628,0
 .,0.00000987,0.00001339,0.,0.00001379,0.00000841,0.,-0.00029798,-0.000
 17263,0.,-0.03048520,-0.15535039,0.,0.02825079,0.65920202,0.,0.,0.0022
 4615,0.,0.,-0.00609870,0.,0.,-0.00000770,0.,0.,-0.00000346,0.,0.,-0.00
 000472,0.,0.,0.00766270,0.,0.,-0.09652677,0.,0.,0.59898726,-0.00000358
 ,0.00000680,0.,-0.00004954,-0.00005738,0.,0.00695433,-0.03152278,0.,-0
 .14071811,-0.05773303,0.,0.02400787,0.02131143,0.,-0.00000347,0.000006
 10,0.,-0.00000017,0.00000100,0.,0.00000019,0.00000081,0.,0.11300057,0.
 00000680,0.00001515,0.,-0.00005738,-0.00007473,0.,-0.00225838,0.010236
 82,0.,-0.05788960,-0.30027778,0.,-0.00779640,-0.00692075,0.,0.00000610
 ,-0.00012585,0.,0.00000100,0.00000284,0.,0.00000081,0.00000126,0.,0.06
 731560,0.29831664,0.,0.,-0.00000579,0.,0.,0.00536626,0.,0.,0.00831926,
 0.,0.,-0.04376847,0.,0.,0.00830448,0.,0.,0.00538404,0.,0.,-0.00000047,
 0.,0.,-0.00000025,0.,0.,0.02984410,-0.00002000,0.00004441,0.,0.0235542
 3,-0.00788359,0.,-0.21068621,0.09856679,0.,-0.00538738,0.02442004,0.,-
 0.00010801,0.00005389,0.,0.00000422,-0.00001118,0.,-0.00000093,-0.0000
 0182,0.,-0.00000129,0.00000096,0.,-0.00225994,-0.00052472,0.,0.1950257
 8,0.00004441,-0.00011752,0.,0.02158121,-0.00722323,0.,0.09845812,-0.22
 944706,0.,-0.00493610,0.02237449,0.,0.00005389,-0.00003036,0.,-0.00001
 118,0.00000646,0.,-0.00000182,0.00000774,0.,0.00000096,0.00000868,0.,-
 0.00052472,0.00002428,0.,-0.11377224,0.21690473,0.,0.,0.00520750,0.,0.
 ,0.00897095,0.,0.,-0.04520823,0.,0.,0.00881791,0.,0.,0.00524460,0.,0.,
 -0.00000590,0.,0.,-0.00000130,0.,0.,-0.00000139,0.,0.,-0.00671795,0.,0
 .,0.03025799,-0.00009450,-0.00005884,0.,0.00001599,0.00000459,0.,-0.00
 013366,0.00002068,0.,-0.00505422,-0.00448656,0.,-0.31096330,-0.0392873
 1,0.,0.00647760,-0.00208041,0.,0.00000392,0.00000542,0.,0.00000153,0.0
 0000150,0.,-0.00093096,0.00119321,0.,0.00000610,-0.00000234,0.,0.31077
 521,-0.00005884,-0.00004071,0.,0.00000459,-0.00000488,0.,0.00002068,-0
 .00000598,0.,0.02471453,0.02193873,0.,-0.03889413,-0.12941167,0.,-0.03
 167468,0.01017296,0.,0.00000542,0.00000388,0.,0.00000150,0.00000077,0.
 ,0.00119321,-0.00120739,0.,-0.00000234,-0.00000031,0.,0.04542478,0.100
 64569,0.,0.,0.00524228,0.,0.,-0.00000585,0.,0.,0.00527334,0.,0.,0.0087
 5331,0.,0.,-0.04518340,0.,0.,0.00915269,0.,0.,-0.00000152,0.,0.,-0.000
 00040,0.,0.,-0.00672297,0.,0.,-0.00000107,0.,0.,0.03024085,-0.00476676
 ,-0.00429637,0.,-0.31152428,-0.03801815,0.,0.00609170,-0.00203889,0.,-
 0.00009248,-0.00005717,0.,0.00001590,0.00000451,0.,-0.00011677,0.00001
 806,0.,-0.00076468,0.00115333,0.,0.00086496,0.00207172,0.,0.00000334,0
 .00000395,0.,-0.00012665,-0.00089056,0.,0.00000232,0.00000055,0.,0.309
 78784,0.02462992,0.02219942,0.,-0.03750741,-0.12895093,0.,-0.03147593,
 0.01053498,0.,-0.00005717,-0.00003960,0.,0.00000451,-0.00000493,0.,0.0
 0001806,-0.00000631,0.,0.00115333,-0.00135313,0.,0.00207172,-0.0159412
 5,0.,0.00000395,0.00000246,0.,-0.00089056,-0.00251635,0.,0.00000055,-0
 .00000025,0.,0.04300693,0.12530763,0.,0.,0.00759703,0.,0.,-0.04395759,
 0.,0.,0.00845721,0.,0.,0.00535186,0.,0.,-0.00000586,0.,0.,0.00533736,0
 .,0.,-0.00563200,0.,0.,0.00111658,0.,0.,-0.00000108,0.,0.,-0.00656186,
 0.,0.,-0.00000036,0.,0.,0.02929226,-0.00537982,0.02487442,0.,-0.000105
 76,0.00005339,0.,0.00000399,-0.00001113,0.,-0.00001805,0.00003841,0.,0
 .02445749,-0.00785502,0.,-0.20738881,0.09781551,0.,-0.00678667,-0.0024
 4707,0.,0.00001711,0.00000702,0.,-0.00000072,-0.00000154,0.,0.00000089
 ,-0.00000140,0.,-0.00010685,-0.00073598,0.,0.00000604,-0.00000237,0.,0
 .19528734,-0.00463594,0.02143497,0.,0.00005339,-0.00003056,0.,-0.00001
 113,0.00000661,0.,0.00003841,-0.00010457,0.,0.02107569,-0.00676888,0.,
 0.09839516,-0.23283755,0.,-0.00244707,-0.00031473,0.,0.00000702,-0.000
 00322,0.,-0.00000154,0.00000636,0.,-0.00000140,0.00000120,0.,-0.000735
 98,-0.00209114,0.,-0.00000237,-0.00000028,0.,-0.11173933,0.22070217,0.
 ,0.,0.00712463,0.,0.,0.00520877,0.,0.,-0.00000590,0.,0.,0.00540305,0.,
 0.,0.00787885,0.,0.,-0.04376023,0.,0.,-0.00462672,0.,0.,-0.00000541,0.
 ,0.,-0.00000104,0.,0.,-0.00000036,0.,0.,-0.00674673,0.,0.,-0.00000107,
 0.,0.,0.02953419,-0.00007673,-0.00013363,0.,-0.00000476,0.00000459,0.,
 -0.00000046,0.00000129,0.,0.00000012,0.00000084,0.,0.00000095,0.000001
 80,0.,0.00000690,0.00001002,0.,0.01283813,-0.04750890,0.,-0.09122300,0
 .01402794,0.,0.,0.00000006,0.,-0.00000008,0.00000005,0.,0.00000012,0.0
 0000017,0.,-0.00000323,-0.00000162,0.,0.00000398,0.00000291,0.,0.07325
 698,-0.00013363,-0.00021365,0.,0.00000459,0.00001715,0.,0.00000129,0.0
 0000473,0.,0.00000084,0.00000151,0.,0.00000180,0.00000178,0.,0.0000100
 2,0.00000697,0.,-0.00016363,0.00060553,0.,-0.00646138,-0.29561490,0.,0
 .00000006,0.00000012,0.,0.00000005,0.00000057,0.,0.00000017,0.00000013
 ,0.,-0.00000162,0.00001663,0.,0.00000291,0.00000086,0.,0.00680481,0.29
 551403,0.,0.,0.00213674,0.,0.,-0.00000568,0.,0.,-0.00000076,0.,0.,-0.0
 0000028,0.,0.,-0.00000048,0.,0.,-0.00000309,0.,0.,0.00054222,0.,0.,-0.
 05736902,0.,0.,-0.00000002,0.,0.,-0.00000008,0.,0.,-0.00000004,0.,0.,-
 0.00000336,0.,0.,-0.00000088,0.,0.,0.04065383,-0.00378362,-0.00251527,
 -0.00119437,-0.00050953,-0.00132568,-0.00050057,-0.00000003,0.00000865
 ,0.00000210,0.00000167,0.00000346,0.00000077,0.00000400,0.00000375,0.0
 0000114,0.00001498,0.00000905,0.00000497,-0.00480229,0.01777139,-0.033
 78562,-0.12601510,0.02247603,-0.07009890,0.00000010,0.00000024,0.00000
 004,-0.00000037,0.00000085,0.00000017,0.00000035,0.00000027,0.00000008
 ,0.00031137,-0.00047695,-0.00019721,0.00000491,0.00000108,0.00000120,0
 .00260054,-0.00003315,0.00431912,0.11979340,-0.00251527,-0.00113284,-0
 .00285748,-0.00132568,-0.00227307,-0.00093415,0.00000865,0.00001462,0.
 00000452,0.00000346,0.00000351,0.00000101,0.00000375,0.00000168,0.0000
 0084,0.00000905,-0.00000078,0.00000226,-0.00211501,0.00782683,-0.01376
 068,0.02893445,-0.08717865,0.07498643,0.00000024,0.00000029,0.00000006
 ,0.00000085,0.00000335,0.00000078,0.00000027,0.00000009,0.00000005,-0.
 00047695,-0.00462405,-0.00205958,0.00000108,-0.00000062,0.00000023,0.0
 1339483,-0.00017072,0.02307570,-0.02707427,0.08116583,-0.00169084,-0.0
 0102025,-0.00134383,-0.00050057,-0.00093415,-0.00015187,0.00000210,0.0
 0000452,-0.00000295,0.00000077,0.00000101,-0.00000076,0.00000114,0.000
 00084,-0.00000083,0.00000497,0.00000226,-0.00000365,0.00189138,-0.0069
 9927,0.01376771,-0.08344453,0.07408520,-0.22499744,0.00000004,0.000000
 06,-0.00000006,0.00000017,0.00000078,-0.00000040,0.00000008,0.00000005
 ,-0.00000006,-0.00019721,-0.00205958,-0.00049455,0.00000120,0.00000023
 ,-0.00000057,0.00402435,-0.00005129,0.00702546,0.09067701,-0.07074519,
 0.21558015,-0.00378362,-0.00251527,0.00119437,-0.00050953,-0.00132568,
 0.00050057,-0.00000003,0.00000865,-0.00000210,0.00000167,0.00000346,-0
 .00000077,0.00000400,0.00000375,-0.00000114,0.00001498,0.00000905,-0.0
 0000497,-0.00480229,0.01777139,0.03378562,-0.12601510,0.02247603,0.070
 09890,0.00000010,0.00000024,-0.00000004,-0.00000037,0.00000085,-0.0000
 0017,0.00000035,0.00000027,-0.00000008,0.00031137,-0.00047695,0.000197
 21,0.00000491,0.00000108,-0.00000120,0.00260054,-0.00003315,-0.0043191
 2,0.01237961,-0.00884945,-0.01077007,0.11979340,-0.00251527,-0.0011328
 4,0.00285748,-0.00132568,-0.00227307,0.00093415,0.00000865,0.00001462,
 -0.00000452,0.00000346,0.00000351,-0.00000101,0.00000375,0.00000168,-0
 .00000084,0.00000905,-0.00000078,-0.00000226,-0.00211501,0.00782683,0.
 01376068,0.02893445,-0.08717865,-0.07498643,0.00000024,0.00000029,-0.0
 0000006,0.00000085,0.00000335,-0.00000078,0.00000027,0.00000009,-0.000
 00005,-0.00047695,-0.00462405,0.00205958,0.00000108,-0.00000062,-0.000
 00023,0.01339483,-0.00017072,-0.02307570,-0.00884945,0.00636454,0.0077
 1479,-0.02707427,0.08116583,0.00169084,0.00102025,-0.00134383,0.000500
 57,0.00093415,-0.00015187,-0.00000210,-0.00000452,-0.00000295,-0.00000
 077,-0.00000101,-0.00000076,-0.00000114,-0.00000084,-0.00000083,-0.000
 00497,-0.00000226,-0.00000365,-0.00189138,0.00699927,0.01376771,0.0834
 4453,-0.07408520,-0.22499744,-0.00000004,-0.00000006,-0.00000006,-0.00
 000017,-0.00000078,-0.00000040,-0.00000008,-0.00000005,-0.00000006,0.0
 0019721,0.00205958,-0.00049455,-0.00000120,-0.00000023,-0.00000057,-0.
 00402435,0.00005129,0.00702546,0.01077007,-0.00771479,-0.00937634,-0.0
 9067701,0.07074519,0.21558015\\0.00514986,-0.05890157,0.,-0.00217827,0
 .00695068,0.,-0.01444923,0.00624814,0.,0.00444540,-0.00466038,0.,0.012
 05447,0.00840063,0.,-0.01210885,-0.00135333,0.,0.00873751,0.04217727,0
 .,0.00600034,-0.00021571,0.,-0.00021791,-0.00066398,0.,0.00213459,0.00
 025294,0.,-0.00146282,0.00078223,0.,-0.00029063,0.00560705,0.,0.004589
 37,0.00406912,0.,-0.00806230,-0.01130237,0.,-0.00217078,0.00130464,-0.
 00914388,-0.00217078,0.00130464,0.00914388\\\@


 TIME IS NATURE'S WAY OF MAKING SURE EVERYTHING
 DOESN'T HAPPEN AT ONCE.
                     - WOODY ALLEN
 Job cpu time:       0 days  0 hours  1 minutes 22.5 seconds.
 File lengths (MBytes):  RWF=      5 Int=      0 D2E=      0 Chk=      1 Scr=      1
 Normal termination of Gaussian 09 at Wed Apr 24 22:28:56 2013.








<filename>/home/scicons/software/Gaussian09.D01/tests/amd64/test0846.log</filename>
<hostname>mu01.local</hostname>
