 Entering Gaussian System, Link 0=g09
 Input=/Users/sky/chem_file_samples/files/o2_triplet.gjf
 Output=/Users/sky/chem_file_samples/files/o2_triplet.log
 Initial command:
 /Applications/gaussian09//g09/l1.exe "/Applications/gaussian09/Scratch/Gau-63025.inp" -scrdir="/Applications/gaussian09/Scratch/"
 Entering Link 1 = /Applications/gaussian09//g09/l1.exe PID=     63026.
  
 Copyright (c) 1988,1990,1992,1993,1995,1998,2003,2009,2013,
            Gaussian, Inc.  All Rights Reserved.
  
 This is part of the Gaussian(R) 09 program.  It is based on
 the Gaussian(R) 03 system (copyright 2003, Gaussian, Inc.),
 the Gaussian(R) 98 system (copyright 1998, Gaussian, Inc.),
 the Gaussian(R) 94 system (copyright 1995, Gaussian, Inc.),
 the Gaussian 92(TM) system (copyright 1992, Gaussian, Inc.),
 the Gaussian 90(TM) system (copyright 1990, Gaussian, Inc.),
 the Gaussian 88(TM) system (copyright 1988, Gaussian, Inc.),
 the Gaussian 86(TM) system (copyright 1986, Carnegie Mellon
 University), and the Gaussian 82(TM) system (copyright 1983,
 Carnegie Mellon University). Gaussian is a federally registered
 trademark of Gaussian, Inc.
  
 This software contains proprietary and confidential information,
 including trade secrets, belonging to Gaussian, Inc.
  
 This software is provided under written license and may be
 used, copied, transmitted, or stored only in accord with that
 written license.
  
 The following legend is applicable only to US Government
 contracts under FAR:
  
                    RESTRICTED RIGHTS LEGEND
  
 Use, reproduction and disclosure by the US Government is
 subject to restrictions as set forth in subparagraphs (a)
 and (c) of the Commercial Computer Software - Restricted
 Rights clause in FAR 52.227-19.
  
 Gaussian, Inc.
 340 Quinnipiac St., Bldg. 40, Wallingford CT 06492
  
  
 ---------------------------------------------------------------
 Warning -- This program may not be used in any manner that
 competes with the business of Gaussian, Inc. or will provide
 assistance to any competitor of Gaussian, Inc.  The licensee
 of this program is prohibited from giving any competitor of
 Gaussian, Inc. access to this program.  By using this program,
 the user acknowledges that Gaussian, Inc. is engaged in the
 business of creating and licensing software in the field of
 computational chemistry and represents and warrants to the
 licensee that it is not a competitor of Gaussian, Inc. and that
 it will not use this program in any manner prohibited above.
 ---------------------------------------------------------------
  

 Cite this work as:
 Gaussian 09, Revision D.01,
 M. J. Frisch, G. W. Trucks, H. B. Schlegel, G. E. Scuseria, 
 M. A. Robb, J. R. Cheeseman, G. Scalmani, V. Barone, B. Mennucci, 
 G. A. Petersson, H. Nakatsuji, M. Caricato, X. Li, H. P. Hratchian, 
 A. F. Izmaylov, J. Bloino, G. Zheng, J. L. Sonnenberg, M. Hada, 
 M. Ehara, K. Toyota, R. Fukuda, J. Hasegawa, M. Ishida, T. Nakajima, 
 Y. Honda, O. Kitao, H. Nakai, T. Vreven, J. A. Montgomery, Jr., 
 J. E. Peralta, F. Ogliaro, M. Bearpark, J. J. Heyd, E. Brothers, 
 K. N. Kudin, V. N. Staroverov, T. Keith, R. Kobayashi, J. Normand, 
 K. Raghavachari, A. Rendell, J. C. Burant, S. S. Iyengar, J. Tomasi, 
 M. Cossi, N. Rega, J. M. Millam, M. Klene, J. E. Knox, J. B. Cross, 
 V. Bakken, C. Adamo, J. Jaramillo, R. Gomperts, R. E. Stratmann, 
 O. Yazyev, A. J. Austin, R. Cammi, C. Pomelli, J. W. Ochterski, 
 R. L. Martin, K. Morokuma, V. G. Zakrzewski, G. A. Voth, 
 P. Salvador, J. J. Dannenberg, S. Dapprich, A. D. Daniels, 
 O. Farkas, J. B. Foresman, J. V. Ortiz, J. Cioslowski, 
 and D. J. Fox, Gaussian, Inc., Wallingford CT, 2013.
 
 ******************************************
 Gaussian 09:  EM64M-G09RevD.01 24-Apr-2013
                16-Jan-2021 
 ******************************************
 %nprocshared=2
 Will use up to    2 processors via shared memory.
 %mem=1GB
 %chk=o2_triplet.chk
 -----------------------------------------------------
 #p opt=calcfc freq b3lyp/6-31g(d,p) geom=connectivity
 -----------------------------------------------------
 1/10=4,14=-1,18=20,19=15,26=3,38=1,57=2/1,3;
 2/9=110,12=2,17=6,18=5,40=1/2;
 3/5=1,6=6,7=101,11=2,16=1,25=1,30=1,71=2,74=-5,140=1/1,2,3;
 4//1;
 5/5=2,38=5/2;
 8/6=4,10=90,11=11/1;
 11/6=1,8=1,9=11,15=111,16=1/1,2,10;
 10/6=1,13=1/2;
 6/7=2,8=2,9=2,10=2,28=1/1;
 7/10=1,18=20,25=1/1,2,3,16;
 1/10=4,14=-1,18=20,19=15,26=3/3(2);
 2/9=110/2;
 99//99;
 2/9=110/2;
 3/5=1,6=6,7=101,11=2,16=1,25=1,30=1,71=1,74=-5/1,2,3;
 4/5=5,16=3,69=1/1;
 5/5=2,38=5/2;
 7//1,2,3,16;
 1/14=-1,18=20,19=15,26=3/3(-5);
 2/9=110/2;
 6/7=2,8=2,9=2,10=2,19=2,28=1/1;
 99/9=1/99;
 Leave Link    1 at Sat Jan 16 17:15:45 2021, MaxMem=   134217728 cpu:         0.4
 (Enter /Applications/gaussian09//g09/l101.exe)
 -------------------
 Title Card Required
 -------------------
 Symbolic Z-matrix:
 Charge =  0 Multiplicity = 3
 O                     0.        0.        0.60799 
 O                     0.        0.       -0.60799 
 
 NAtoms=      2 NQM=        2 NQMF=       0 NMMI=      0 NMMIF=      0
                NMic=       0 NMicF=      0.
                    Isotopes and Nuclear Properties:
 (Nuclear quadrupole moments (NQMom) in fm**2, nuclear magnetic moments (NMagM)
  in nuclear magnetons)

  Atom         1           2
 IAtWgt=          16          16
 AtmWgt=  15.9949146  15.9949146
 NucSpn=           0           0
 AtZEff=   0.0000000   0.0000000
 NQMom=    0.0000000   0.0000000
 NMagM=    0.0000000   0.0000000
 AtZNuc=   8.0000000   8.0000000
 Leave Link  101 at Sat Jan 16 17:15:45 2021, MaxMem=   134217728 cpu:         0.4
 (Enter /Applications/gaussian09//g09/l103.exe)

 GradGradGradGradGradGradGradGradGradGradGradGradGradGradGradGradGradGrad
 Berny optimization.
 Initialization pass.
                           ----------------------------
                           !    Initial Parameters    !
                           ! (Angstroms and Degrees)  !
 --------------------------                            --------------------------
 ! Name  Definition              Value          Derivative Info.                !
 --------------------------------------------------------------------------------
 ! R1    R(1,2)                  1.216          calculate D2E/DX2 analytically  !
 --------------------------------------------------------------------------------
 Trust Radius=3.00D-01 FncErr=1.00D-07 GrdErr=1.00D-06
 Number of steps in this run=     20 maximum allowed number of steps=    100.
 GradGradGradGradGradGradGradGradGradGradGradGradGradGradGradGradGradGrad

 Leave Link  103 at Sat Jan 16 17:15:45 2021, MaxMem=   134217728 cpu:         0.0
 (Enter /Applications/gaussian09//g09/l202.exe)
                          Input orientation:                          
 ---------------------------------------------------------------------
 Center     Atomic      Atomic             Coordinates (Angstroms)
 Number     Number       Type             X           Y           Z
 ---------------------------------------------------------------------
      1          8           0        0.000000    0.000000    0.607994
      2          8           0        0.000000    0.000000   -0.607994
 ---------------------------------------------------------------------
 Stoichiometry    O2(3)
 Framework group  D*H[C*(O.O)]
 Deg. of freedom     1
 Full point group                 D*H     NOp   8
 Largest Abelian subgroup         D2H     NOp   8
 Largest concise Abelian subgroup C2      NOp   2
                         Standard orientation:                         
 ---------------------------------------------------------------------
 Center     Atomic      Atomic             Coordinates (Angstroms)
 Number     Number       Type             X           Y           Z
 ---------------------------------------------------------------------
      1          8           0        0.000000    0.000000    0.607994
      2          8           0        0.000000    0.000000   -0.607994
 ---------------------------------------------------------------------
 Rotational constants (GHZ):      0.0000000     42.7372612     42.7372612
 Leave Link  202 at Sat Jan 16 17:15:45 2021, MaxMem=   134217728 cpu:         0.0
 (Enter /Applications/gaussian09//g09/l301.exe)
 Standard basis: 6-31G(d,p) (6D, 7F)
 Ernie: Thresh=  0.10000D-02 Tol=  0.10000D-05 Strict=F.
 There are     8 symmetry adapted cartesian basis functions of AG  symmetry.
 There are     1 symmetry adapted cartesian basis functions of B1G symmetry.
 There are     3 symmetry adapted cartesian basis functions of B2G symmetry.
 There are     3 symmetry adapted cartesian basis functions of B3G symmetry.
 There are     1 symmetry adapted cartesian basis functions of AU  symmetry.
 There are     8 symmetry adapted cartesian basis functions of B1U symmetry.
 There are     3 symmetry adapted cartesian basis functions of B2U symmetry.
 There are     3 symmetry adapted cartesian basis functions of B3U symmetry.
 There are     8 symmetry adapted basis functions of AG  symmetry.
 There are     1 symmetry adapted basis functions of B1G symmetry.
 There are     3 symmetry adapted basis functions of B2G symmetry.
 There are     3 symmetry adapted basis functions of B3G symmetry.
 There are     1 symmetry adapted basis functions of AU  symmetry.
 There are     8 symmetry adapted basis functions of B1U symmetry.
 There are     3 symmetry adapted basis functions of B2U symmetry.
 There are     3 symmetry adapted basis functions of B3U symmetry.
    30 basis functions,    56 primitive gaussians,    30 cartesian basis functions
     9 alpha electrons        7 beta electrons
       nuclear repulsion energy        27.8517068834 Hartrees.
 IExCor=  402 DFT=T Ex+Corr=B3LYP ExCW=0 ScaHFX=  0.200000
 ScaDFX=  0.800000  0.720000  1.000000  0.810000 ScalE2=  1.000000  1.000000
 IRadAn=      0 IRanWt=     -1 IRanGd=            0 ICorTp=0 IEmpDi=  4
 NAtoms=    2 NActive=    2 NUniq=    1 SFac= 4.00D+00 NAtFMM=   60 NAOKFM=F Big=F
 Integral buffers will be    131072 words long.
 Raffenetti 2 integral format.
 Two-electron integral symmetry is turned on.
 Leave Link  301 at Sat Jan 16 17:15:45 2021, MaxMem=   134217728 cpu:         0.1
 (Enter /Applications/gaussian09//g09/l302.exe)
 NPDir=0 NMtPBC=     1 NCelOv=     1 NCel=       1 NClECP=     1 NCelD=      1
         NCelK=      1 NCelE2=     1 NClLst=     1 CellRange=     0.0.
 One-electron integrals computed using PRISM.
 One-electron integral symmetry used in STVInt
 NBasis=    30 RedAO= T EigKep=  1.02D-02  NBF=     8     1     3     3     1     8     3     3
 NBsUse=    30 1.00D-06 EigRej= -1.00D+00 NBFU=     8     1     3     3     1     8     3     3
 Precomputing XC quadrature grid using
 IXCGrd= 4 IRadAn=           0 IRanWt=          -1 IRanGd=           0 AccXCQ= 0.00D+00.
 Generated NRdTot=       0 NPtTot=           0 NUsed=           0 NTot=          32
 NSgBfM=    30    30    30    30    30 MxSgAt=     2 MxSgA2=     2.
 Leave Link  302 at Sat Jan 16 17:15:45 2021, MaxMem=   134217728 cpu:         0.3
 (Enter /Applications/gaussian09//g09/l303.exe)
 DipDrv:  MaxL=1.
 Leave Link  303 at Sat Jan 16 17:15:46 2021, MaxMem=   134217728 cpu:         0.1
 (Enter /Applications/gaussian09//g09/l401.exe)
 ExpMin= 2.70D-01 ExpMax= 5.48D+03 ExpMxC= 8.25D+02 IAcc=1 IRadAn=         1 AccDes= 0.00D+00
 Harris functional with IExCor=  402 and IRadAn=       1 diagonalized for initial guess.
 HarFok:  IExCor=  402 AccDes= 0.00D+00 IRadAn=         1 IDoV= 1 UseB2=F ITyADJ=14
 ICtDFT=  3500011 ScaDFX=  1.000000  1.000000  1.000000  1.000000
 FoFCou: FMM=F IPFlag=           0 FMFlag=      100000 FMFlg1=           0
         NFxFlg=           0 DoJE=T BraDBF=F KetDBF=T FulRan=T
         wScrn=  0.000000 ICntrl=     500 IOpCl=  0 I1Cent=   200000004 NGrid=           0
         NMat0=    1 NMatS0=      1 NMatT0=    0 NMatD0=    1 NMtDS0=    0 NMtDT0=    0
 Petite list used in FoFCou.
 Harris En= -150.265991012638    
 JPrj=0 DoOrth=F DoCkMO=F.
 Initial guess orbital symmetries:
 Alpha Orbitals:
       Occupied  (SGG) (SGU) (SGG) (SGU) (SGG) (PIU) (PIU) (PIG)
                 (PIG)
       Virtual   (SGU) (SGG) (SGU) (PIU) (PIU) (SGG) (PIG) (PIG)
                 (SGU) (PIU) (PIU) (DLTG) (DLTG) (DLTU) (DLTU)
                 (SGG) (PIG) (PIG) (SGU) (SGG) (SGU)
 Beta  Orbitals:
       Occupied  (SGG) (SGU) (SGG) (SGU) (SGG) (PIU) (PIU)
       Virtual   (PIG) (PIG) (SGU) (SGG) (SGU) (PIU) (PIU) (SGG)
                 (PIG) (PIG) (SGU) (PIU) (PIU) (DLTG) (DLTG) (DLTU)
                 (DLTU) (SGG) (PIG) (PIG) (SGU) (SGG) (SGU)
 The electronic state of the initial guess is 3-SGG.
 Initial guess <Sx>= 0.0000 <Sy>= 0.0000 <Sz>= 1.0000 <S**2>= 2.0000 S= 1.0000
 Leave Link  401 at Sat Jan 16 17:15:46 2021, MaxMem=   134217728 cpu:         0.3
 (Enter /Applications/gaussian09//g09/l502.exe)
 UHF open shell SCF:
 Using DIIS extrapolation, IDIIS=  1040.
 Integral symmetry usage will be decided dynamically.
 Keep R1 and R2 ints in memory in symmetry-blocked form, NReq=992529.
 IVT=       21766 IEndB=       21766 NGot=   134217728 MDV=   134162449
 LenX=   134162449 LenY=   134161108
 Requested convergence on RMS density matrix=1.00D-08 within 128 cycles.
 Requested convergence on MAX density matrix=1.00D-06.
 Requested convergence on             energy=1.00D-06.
 No special actions if energy rises.
 FoFCou: FMM=F IPFlag=           0 FMFlag=           0 FMFlg1=           0
         NFxFlg=           0 DoJE=F BraDBF=F KetDBF=F FulRan=T
         wScrn=  0.000000 ICntrl=     600 IOpCl=  0 I1Cent=           0 NGrid=           0
         NMat0=    1 NMatS0=    465 NMatT0=    0 NMatD0=    1 NMtDS0=    0 NMtDT0=    0
 Petite list used in FoFCou.
 Integral accuracy reduced to 1.0D-05 until final iterations.

 Cycle   1  Pass 0  IDiag  1:
 E= -150.309350005060    
 DIIS: error= 2.46D-02 at cycle   1 NSaved=   1.
 NSaved= 1 IEnMin= 1 EnMin= -150.309350005060     IErMin= 1 ErrMin= 2.46D-02
 ErrMax= 2.46D-02  0.00D+00 EMaxC= 1.00D-01 BMatC= 5.53D-02 BMatP= 5.53D-02
 IDIUse=3 WtCom= 7.54D-01 WtEn= 2.46D-01
 Coeff-Com:  0.100D+01
 Coeff-En:   0.100D+01
 Coeff:      0.100D+01
 Gap=     0.492 Goal=   None    Shift=    0.000
 Gap=     0.346 Goal=   None    Shift=    0.000
 GapD=    0.346 DampG=1.000 DampE=0.500 DampFc=0.5000 IDamp=-1.
 Damping current iteration by 5.00D-01
 RMSDP=3.22D-03 MaxDP=2.39D-02              OVMax= 4.52D-02

 Cycle   2  Pass 0  IDiag  1:
 E= -150.314755657009     Delta-E=       -0.005405651949 Rises=F Damp=T
 DIIS: error= 1.01D-02 at cycle   2 NSaved=   2.
 NSaved= 2 IEnMin= 2 EnMin= -150.314755657009     IErMin= 2 ErrMin= 1.01D-02
 ErrMax= 1.01D-02  0.00D+00 EMaxC= 1.00D-01 BMatC= 9.35D-03 BMatP= 5.53D-02
 IDIUse=3 WtCom= 8.99D-01 WtEn= 1.01D-01
 Coeff-Com: -0.547D+00 0.155D+01
 Coeff-En:   0.000D+00 0.100D+01
 Coeff:     -0.492D+00 0.149D+01
 Gap=     0.502 Goal=   None    Shift=    0.000
 Gap=     0.343 Goal=   None    Shift=    0.000
 RMSDP=1.34D-03 MaxDP=1.10D-02 DE=-5.41D-03 OVMax= 1.46D-02

 Cycle   3  Pass 0  IDiag  1:
 E= -150.319958149581     Delta-E=       -0.005202492572 Rises=F Damp=F
 DIIS: error= 2.23D-03 at cycle   3 NSaved=   3.
 NSaved= 3 IEnMin= 3 EnMin= -150.319958149581     IErMin= 3 ErrMin= 2.23D-03
 ErrMax= 2.23D-03  0.00D+00 EMaxC= 1.00D-01 BMatC= 3.42D-04 BMatP= 9.35D-03
 IDIUse=3 WtCom= 9.78D-01 WtEn= 2.23D-02
 Coeff-Com: -0.112D+00 0.187D+00 0.925D+00
 Coeff-En:   0.000D+00 0.000D+00 0.100D+01
 Coeff:     -0.109D+00 0.182D+00 0.927D+00
 Gap=     0.503 Goal=   None    Shift=    0.000
 Gap=     0.343 Goal=   None    Shift=    0.000
 RMSDP=3.62D-04 MaxDP=4.38D-03 DE=-5.20D-03 OVMax= 3.48D-03

 Cycle   4  Pass 0  IDiag  1:
 E= -150.320030950302     Delta-E=       -0.000072800721 Rises=F Damp=F
 DIIS: error= 1.03D-03 at cycle   4 NSaved=   4.
 NSaved= 4 IEnMin= 4 EnMin= -150.320030950302     IErMin= 4 ErrMin= 1.03D-03
 ErrMax= 1.03D-03  0.00D+00 EMaxC= 1.00D-01 BMatC= 6.01D-05 BMatP= 3.42D-04
 IDIUse=3 WtCom= 9.90D-01 WtEn= 1.03D-02
 Coeff-Com:  0.266D-02-0.485D-01 0.317D+00 0.728D+00
 Coeff-En:   0.000D+00 0.000D+00 0.000D+00 0.100D+01
 Coeff:      0.264D-02-0.480D-01 0.314D+00 0.731D+00
 Gap=     0.503 Goal=   None    Shift=    0.000
 Gap=     0.343 Goal=   None    Shift=    0.000
 RMSDP=1.00D-04 MaxDP=9.80D-04 DE=-7.28D-05 OVMax= 1.13D-03

 Cycle   5  Pass 0  IDiag  1:
 E= -150.320042692355     Delta-E=       -0.000011742053 Rises=F Damp=F
 DIIS: error= 5.70D-05 at cycle   5 NSaved=   5.
 NSaved= 5 IEnMin= 5 EnMin= -150.320042692355     IErMin= 5 ErrMin= 5.70D-05
 ErrMax= 5.70D-05  0.00D+00 EMaxC= 1.00D-01 BMatC= 2.67D-07 BMatP= 6.01D-05
 IDIUse=1 WtCom= 1.00D+00 WtEn= 0.00D+00
 Coeff-Com:  0.534D-02-0.925D-02-0.377D-01-0.231D-01 0.106D+01
 Coeff:      0.534D-02-0.925D-02-0.377D-01-0.231D-01 0.106D+01
 Gap=     0.503 Goal=   None    Shift=    0.000
 Gap=     0.343 Goal=   None    Shift=    0.000
 RMSDP=1.26D-05 MaxDP=1.24D-04 DE=-1.17D-05 OVMax= 1.22D-04

 Cycle   6  Pass 0  IDiag  1:
 E= -150.320042787052     Delta-E=       -0.000000094697 Rises=F Damp=F
 DIIS: error= 2.13D-06 at cycle   6 NSaved=   6.
 NSaved= 6 IEnMin= 6 EnMin= -150.320042787052     IErMin= 6 ErrMin= 2.13D-06
 ErrMax= 2.13D-06  0.00D+00 EMaxC= 1.00D-01 BMatC= 3.85D-10 BMatP= 2.67D-07
 IDIUse=1 WtCom= 1.00D+00 WtEn= 0.00D+00
 Coeff-Com: -0.552D-03 0.112D-02 0.262D-02 0.225D-05-0.107D+00 0.110D+01
 Coeff:     -0.552D-03 0.112D-02 0.262D-02 0.225D-05-0.107D+00 0.110D+01
 Gap=     0.503 Goal=   None    Shift=    0.000
 Gap=     0.343 Goal=   None    Shift=    0.000
 RMSDP=4.11D-07 MaxDP=3.28D-06 DE=-9.47D-08 OVMax= 3.71D-06

 Initial convergence to 1.0D-05 achieved.  Increase integral accuracy.
 Cycle   7  Pass 1  IDiag  1:
 E= -150.320038908045     Delta-E=        0.000003879007 Rises=F Damp=F
 DIIS: error= 5.68D-06 at cycle   1 NSaved=   1.
 NSaved= 1 IEnMin= 1 EnMin= -150.320038908045     IErMin= 1 ErrMin= 5.68D-06
 ErrMax= 5.68D-06  0.00D+00 EMaxC= 1.00D-01 BMatC= 1.27D-09 BMatP= 1.27D-09
 IDIUse=1 WtCom= 1.00D+00 WtEn= 0.00D+00
 Coeff-Com:  0.100D+01
 Coeff:      0.100D+01
 Gap=     0.503 Goal=   None    Shift=    0.000
 Gap=     0.343 Goal=   None    Shift=    0.000
 RMSDP=4.11D-07 MaxDP=3.28D-06 DE= 3.88D-06 OVMax= 8.69D-06

 Cycle   8  Pass 1  IDiag  1:
 E= -150.320038908367     Delta-E=       -0.000000000321 Rises=F Damp=F
 DIIS: error= 1.49D-06 at cycle   2 NSaved=   2.
 NSaved= 2 IEnMin= 2 EnMin= -150.320038908367     IErMin= 2 ErrMin= 1.49D-06
 ErrMax= 1.49D-06  0.00D+00 EMaxC= 1.00D-01 BMatC= 2.00D-10 BMatP= 1.27D-09
 IDIUse=1 WtCom= 1.00D+00 WtEn= 0.00D+00
 Coeff-Com:  0.178D+00 0.822D+00
 Coeff:      0.178D+00 0.822D+00
 Gap=     0.503 Goal=   None    Shift=    0.000
 Gap=     0.343 Goal=   None    Shift=    0.000
 RMSDP=2.48D-07 MaxDP=1.98D-06 DE=-3.21D-10 OVMax= 2.01D-06

 Cycle   9  Pass 1  IDiag  1:
 E= -150.320038908396     Delta-E=       -0.000000000029 Rises=F Damp=F
 DIIS: error= 6.57D-07 at cycle   3 NSaved=   3.
 NSaved= 3 IEnMin= 3 EnMin= -150.320038908396     IErMin= 3 ErrMin= 6.57D-07
 ErrMax= 6.57D-07  0.00D+00 EMaxC= 1.00D-01 BMatC= 3.65D-11 BMatP= 2.00D-10
 IDIUse=1 WtCom= 1.00D+00 WtEn= 0.00D+00
 Coeff-Com: -0.265D-01 0.291D+00 0.735D+00
 Coeff:     -0.265D-01 0.291D+00 0.735D+00
 Gap=     0.503 Goal=   None    Shift=    0.000
 Gap=     0.343 Goal=   None    Shift=    0.000
 RMSDP=7.75D-08 MaxDP=8.71D-07 DE=-2.94D-11 OVMax= 6.84D-07

 Cycle  10  Pass 1  IDiag  1:
 E= -150.320038908403     Delta-E=       -0.000000000007 Rises=F Damp=F
 DIIS: error= 2.46D-08 at cycle   4 NSaved=   4.
 NSaved= 4 IEnMin= 4 EnMin= -150.320038908403     IErMin= 4 ErrMin= 2.46D-08
 ErrMax= 2.46D-08  0.00D+00 EMaxC= 1.00D-01 BMatC= 5.34D-14 BMatP= 3.65D-11
 IDIUse=1 WtCom= 1.00D+00 WtEn= 0.00D+00
 Coeff-Com: -0.175D-02 0.569D-02 0.225D-01 0.974D+00
 Coeff:     -0.175D-02 0.569D-02 0.225D-01 0.974D+00
 Gap=     0.503 Goal=   None    Shift=    0.000
 Gap=     0.343 Goal=   None    Shift=    0.000
 RMSDP=4.37D-09 MaxDP=4.10D-08 DE=-7.08D-12 OVMax= 6.20D-08

 SCF Done:  E(UB3LYP) =  -150.320038908     A.U. after   10 cycles
            NFock= 10  Conv=0.44D-08     -V/T= 2.0082
 <Sx>= 0.0000 <Sy>= 0.0000 <Sz>= 1.0000 <S**2>= 2.0066 S= 1.0022
 <L.S>= 0.000000000000E+00
 KE= 1.490922318728D+02 PE=-4.105311536116D+02 EE= 8.326717594701D+01
 Annihilation of the first spin contaminant:
 S**2 before annihilation     2.0066,   after     2.0000
 Leave Link  502 at Sat Jan 16 17:15:46 2021, MaxMem=   134217728 cpu:         0.6
 (Enter /Applications/gaussian09//g09/l801.exe)
 DoSCS=F DFT=T ScalE2(SS,OS)=  1.000000  1.000000
 Range of M.O.s used for correlation:     1    30
 NBasis=    30 NAE=     9 NBE=     7 NFC=     0 NFV=     0
 NROrb=     30 NOA=     9 NOB=     7 NVA=    21 NVB=    23
 Leave Link  801 at Sat Jan 16 17:15:46 2021, MaxMem=   134217728 cpu:         0.1
 (Enter /Applications/gaussian09//g09/l1101.exe)
 Using compressed storage, NAtomX=     2.
 Will process      3 centers per pass.
 Leave Link 1101 at Sat Jan 16 17:15:47 2021, MaxMem=   134217728 cpu:         0.2
 (Enter /Applications/gaussian09//g09/l1102.exe)
 Symmetrizing basis deriv contribution to polar:
 IMax=3 JMax=2 DiffMx= 0.00D+00
 Leave Link 1102 at Sat Jan 16 17:15:47 2021, MaxMem=   134217728 cpu:         0.1
 (Enter /Applications/gaussian09//g09/l1110.exe)
 Forming Gx(P) for the SCF density, NAtomX=     2.
 Integral derivatives from FoFJK, PRISM(SPDF).
 Do as many integral derivatives as possible in FoFJK.
 G2DrvN: MDV=     134217608.
 G2DrvN: will do     3 centers at a time, making    1 passes.
 Calling FoFCou, ICntrl=  3107 FMM=F I1Cent=   0 AccDes= 0.00D+00.
 FoFJK:  IHMeth= 1 ICntrl=    3107 DoSepK=F KAlg= 0 I1Cent=   0 FoldK=F
 IRaf=         0 NMat=   1 IRICut=       1 DoRegI=T DoRafI=F ISym2E= 1.
 FoFCou: FMM=F IPFlag=           0 FMFlag=      100000 FMFlg1=           0
         NFxFlg=           0 DoJE=F BraDBF=F KetDBF=F FulRan=T
         wScrn=  0.000000 ICntrl=    3107 IOpCl=  1 I1Cent=           0 NGrid=           0
         NMat0=    1 NMatS0=      1 NMatT0=    0 NMatD0=    1 NMtDS0=    0 NMtDT0=    0
 Petite list used in FoFCou.
 End of G2Drv F.D. properties file   721 does not exist.
 End of G2Drv F.D. properties file   722 does not exist.
 End of G2Drv F.D. properties file   788 does not exist.
 Leave Link 1110 at Sat Jan 16 17:15:47 2021, MaxMem=   134217728 cpu:         0.5
 (Enter /Applications/gaussian09//g09/l1002.exe)
 Minotr:  UHF open shell wavefunction.
          IDoAtm=11
          Direct CPHF calculation.
          Differentiating once with respect to nuclear coordinates.
          Using symmetry in CPHF.
          Requested convergence is 1.0D-08 RMS, and 1.0D-07 maximum.
          Secondary convergence is 1.0D-12 RMS, and 1.0D-12 maximum.
          NewPWx=T KeepS1=F KeepF1=F KeepIn=T MapXYZ=F SortEE=F KeepMc=T.
          MDV=     134217644 using IRadAn=       2.
 Generate precomputed XC quadrature information.
 Keep R1 and R2 ints in memory in symmetry-blocked form, NReq=970255.
 FoFCou: FMM=F IPFlag=           0 FMFlag=           0 FMFlg1=           0
         NFxFlg=           0 DoJE=F BraDBF=F KetDBF=F FulRan=T
         wScrn=  0.000000 ICntrl=     600 IOpCl=  0 I1Cent=           0 NGrid=           0
         NMat0=    1 NMatS0=    465 NMatT0=    0 NMatD0=    1 NMtDS0=    0 NMtDT0=    0
 Petite list used in FoFCou.
          Solving linear equations simultaneously, MaxMat=       0.
          There are     6 degrees of freedom in the 1st order CPHF.  IDoFFX=4 NUNeed=     6.
      3 vectors produced by pass  0 Test12= 5.83D-15 1.67D-08 XBig12= 1.80D-01 2.43D-01.
 AX will form     3 AO Fock derivatives at one time.
      3 vectors produced by pass  1 Test12= 5.83D-15 1.67D-08 XBig12= 7.69D-03 3.55D-02.
      3 vectors produced by pass  2 Test12= 5.83D-15 1.67D-08 XBig12= 1.40D-04 4.29D-03.
      3 vectors produced by pass  3 Test12= 5.83D-15 1.67D-08 XBig12= 7.11D-06 1.01D-03.
      3 vectors produced by pass  4 Test12= 5.83D-15 1.67D-08 XBig12= 2.21D-07 1.88D-04.
      3 vectors produced by pass  5 Test12= 5.83D-15 1.67D-08 XBig12= 2.36D-10 5.29D-06.
      3 vectors produced by pass  6 Test12= 5.83D-15 1.67D-08 XBig12= 6.58D-13 4.33D-07.
      1 vectors produced by pass  7 Test12= 5.83D-15 1.67D-08 XBig12= 3.25D-15 2.52D-08.
      1 vectors produced by pass  8 Test12= 5.83D-15 1.67D-08 XBig12= 2.84D-15 3.11D-08.
 InvSVY:  IOpt=1 It=  1 EMax= 2.22D-16
 Solved reduced A of dimension    23 with     3 vectors.
 FullF1:  Do perturbations    4 to     6.
 End of Minotr F.D. properties file   721 does not exist.
 End of Minotr F.D. properties file   722 does not exist.
 End of Minotr F.D. properties file   788 does not exist.
 Leave Link 1002 at Sat Jan 16 17:15:48 2021, MaxMem=   134217728 cpu:         0.9
 (Enter /Applications/gaussian09//g09/l601.exe)
 Copying SCF densities to generalized density rwf, IOpCl= 1 IROHF=0.

 **********************************************************************

            Population analysis using the SCF density.

 **********************************************************************

 Orbital symmetries:
 Alpha Orbitals:
       Occupied  (SGG) (SGU) (SGG) (SGU) (PIU) (PIU) (SGG) (PIG)
                 (PIG)
       Virtual   (SGU) (SGG) (SGU) (PIU) (PIU) (SGG) (PIG) (PIG)
                 (SGU) (PIU) (PIU) (DLTG) (DLTG) (DLTU) (DLTU)
                 (SGG) (PIG) (PIG) (SGU) (SGG) (SGU)
 Beta  Orbitals:
       Occupied  (SGG) (SGU) (SGG) (SGU) (SGG) (PIU) (PIU)
       Virtual   (PIG) (PIG) (SGU) (SGG) (SGU) (PIU) (PIU) (SGG)
                 (PIG) (PIG) (SGU) (PIU) (PIU) (DLTG) (DLTG) (DLTU)
                 (DLTU) (SGG) (PIG) (PIG) (SGU) (SGG) (SGU)
 The electronic state is 3-SGG.
 Alpha  occ. eigenvalues --  -19.31242 -19.31225  -1.30068  -0.83843  -0.55893
 Alpha  occ. eigenvalues --   -0.55893  -0.54721  -0.30861  -0.30861
 Alpha virt. eigenvalues --    0.19456   0.66956   0.70855   0.77684   0.77684
 Alpha virt. eigenvalues --    0.85689   0.89568   0.89568   1.27328   1.48569
 Alpha virt. eigenvalues --    1.48569   1.51404   1.51405   1.89229   1.89230
 Alpha virt. eigenvalues --    2.39579   2.53374   2.53374   2.79580   3.15371
 Alpha virt. eigenvalues --    3.48678
  Beta  occ. eigenvalues --  -19.28311 -19.28281  -1.24271  -0.74976  -0.50761
  Beta  occ. eigenvalues --   -0.45644  -0.45644
  Beta virt. eigenvalues --   -0.11326  -0.11326   0.23879   0.68834   0.72634
  Beta virt. eigenvalues --    0.83256   0.83256   0.86872   0.95361   0.95361
  Beta virt. eigenvalues --    1.30069   1.51895   1.51895   1.56981   1.56982
  Beta virt. eigenvalues --    1.96388   1.96389   2.43193   2.57605   2.57605
  Beta virt. eigenvalues --    2.82126   3.19786   3.53137
          Condensed to atoms (all electrons):
               1          2
     1  O    7.881111   0.118889
     2  O    0.118889   7.881111
          Atomic-Atomic Spin Densities.
               1          2
     1  O    1.324983  -0.324983
     2  O   -0.324983   1.324983
 Mulliken charges and spin densities:
               1          2
     1  O    0.000000   1.000000
     2  O    0.000000   1.000000
 Sum of Mulliken charges =   0.00000   2.00000
 Mulliken charges and spin densities with hydrogens summed into heavy atoms:
               1          2
     1  O    0.000000   1.000000
     2  O    0.000000   1.000000
 APT charges:
               1
     1  O    0.000000
     2  O    0.000000
 Sum of APT charges =   0.00000
 APT charges with hydrogens summed into heavy atoms:
               1
     1  O    0.000000
     2  O    0.000000
 Electronic spatial extent (au):  <R**2>=             43.3295
 Charge=              0.0000 electrons
 Dipole moment (field-independent basis, Debye):
    X=              0.0000    Y=              0.0000    Z=              0.0000  Tot=              0.0000
 Quadrupole moment (field-independent basis, Debye-Ang):
   XX=             -9.8057   YY=             -9.8057   ZZ=            -10.2596
   XY=              0.0000   XZ=              0.0000   YZ=              0.0000
 Traceless Quadrupole moment (field-independent basis, Debye-Ang):
   XX=              0.1513   YY=              0.1513   ZZ=             -0.3026
   XY=              0.0000   XZ=              0.0000   YZ=              0.0000
 Octapole moment (field-independent basis, Debye-Ang**2):
  XXX=              0.0000  YYY=              0.0000  ZZZ=              0.0000  XYY=              0.0000
  XXY=              0.0000  XXZ=              0.0000  XZZ=              0.0000  YZZ=              0.0000
  YYZ=              0.0000  XYZ=              0.0000
 Hexadecapole moment (field-independent basis, Debye-Ang**3):
 XXXX=             -6.4144 YYYY=             -6.4144 ZZZZ=            -27.7902 XXXY=              0.0000
 XXXZ=              0.0000 YYYX=              0.0000 YYYZ=              0.0000 ZZZX=              0.0000
 ZZZY=              0.0000 XXYY=             -2.1381 XXZZ=             -5.9255 YYZZ=             -5.9255
 XXYZ=              0.0000 YYXZ=              0.0000 ZZXY=              0.0000
 N-N= 2.785170688342D+01 E-N=-4.105311537725D+02  KE= 1.490922318728D+02
 Symmetry AG   KE= 6.921758632800D+01
 Symmetry B1G  KE= 1.772668120796D-34
 Symmetry B2G  KE= 3.039758282850D+00
 Symmetry B3G  KE= 3.039758282850D+00
 Symmetry AU   KE= 4.010761756429D-34
 Symmetry B1U  KE= 6.473690117533D+01
 Symmetry B2U  KE= 4.529113901875D+00
 Symmetry B3U  KE= 4.529113901875D+00
  Exact polarizability:   0.000   0.000   0.000   0.000   0.000   0.000
 Approx polarizability:   5.309   0.000   5.309   0.000   0.000  24.375
                          Isotropic Fermi Contact Couplings
        Atom                 a.u.       MegaHertz       Gauss      10(-4) cm-1
     1  O(17)              0.13943     -42.25973     -15.07932     -14.09633
     2  O(17)              0.13943     -42.25973     -15.07932     -14.09633
 --------------------------------------------------------
       Center         ----  Spin Dipole Couplings  ----
                      3XX-RR        3YY-RR        3ZZ-RR
 --------------------------------------------------------
     1   Atom        1.156557      1.156557     -2.313113
     2   Atom        1.156557      1.156557     -2.313113
 --------------------------------------------------------
                        XY            XZ            YZ
 --------------------------------------------------------
     1   Atom        0.000000      0.000000      0.000000
     2   Atom        0.000000      0.000000      0.000000
 --------------------------------------------------------


 ---------------------------------------------------------------------------------
              Anisotropic Spin Dipole Couplings in Principal Axis System
 ---------------------------------------------------------------------------------

       Atom             a.u.   MegaHertz   Gauss  10(-4) cm-1        Axes

              Baa    -2.3131   167.375    59.724    55.830  0.0000  0.0000  1.0000
     1 O(17)  Bbb     1.1566   -83.688   -29.862   -27.915  0.0000  1.0000  0.0000
              Bcc     1.1566   -83.688   -29.862   -27.915  1.0000  0.0000  0.0000
 
              Baa    -2.3131   167.375    59.724    55.830  0.0000  0.0000  1.0000
     2 O(17)  Bbb     1.1566   -83.688   -29.862   -27.915 -0.0026  1.0000  0.0000
              Bcc     1.1566   -83.688   -29.862   -27.915  1.0000  0.0026  0.0000
 

 ---------------------------------------------------------------------------------

 No NMR shielding tensors so no spin-rotation constants.
 Leave Link  601 at Sat Jan 16 17:15:48 2021, MaxMem=   134217728 cpu:         0.4
 (Enter /Applications/gaussian09//g09/l701.exe)
 Compute integral second derivatives.
 ... and contract with generalized density number  0.
 Leave Link  701 at Sat Jan 16 17:15:48 2021, MaxMem=   134217728 cpu:         0.3
 (Enter /Applications/gaussian09//g09/l702.exe)
 L702 exits ... SP integral derivatives will be done elsewhere.
 Leave Link  702 at Sat Jan 16 17:15:48 2021, MaxMem=   134217728 cpu:         0.1
 (Enter /Applications/gaussian09//g09/l703.exe)
 Compute integral second derivatives, UseDBF=F ICtDFT=           0.
 Integral derivatives from FoFJK, PRISM(SPDF).
 Calling FoFJK, ICntrl=    100147 FMM=F ISym2X=1 I1Cent= 0 IOpClX= 1 NMat=1 NMatS=1 NMatT=0.
 FoFJK:  IHMeth= 1 ICntrl=  100147 DoSepK=F KAlg= 0 I1Cent=   0 FoldK=F
 IRaf=         0 NMat=   1 IRICut=       1 DoRegI=T DoRafI=F ISym2E= 1.
 FoFCou: FMM=F IPFlag=           0 FMFlag=      100000 FMFlg1=         800
         NFxFlg=           0 DoJE=F BraDBF=F KetDBF=F FulRan=T
         wScrn=  0.000000 ICntrl=  100147 IOpCl=  1 I1Cent=           0 NGrid=           0
         NMat0=    1 NMatS0=      1 NMatT0=    0 NMatD0=    1 NMtDS0=    0 NMtDT0=    0
 Petite list used in FoFCou.
 Leave Link  703 at Sat Jan 16 17:15:49 2021, MaxMem=   134217728 cpu:         0.8
 (Enter /Applications/gaussian09//g09/l716.exe)
 Dipole        =-5.91645679D-31-7.70371978D-34 0.00000000D+00
 Polarizability= 0.00000000D+00 0.00000000D+00 0.00000000D+00
                 0.00000000D+00 0.00000000D+00 0.00000000D+00
 ***** Axes restored to original set *****
 -------------------------------------------------------------------
 Center     Atomic                   Forces (Hartrees/Bohr)
 Number     Number              X              Y              Z
 -------------------------------------------------------------------
      1        8           0.000000000    0.000000000   -0.002291873
      2        8           0.000000000    0.000000000    0.002291873
 -------------------------------------------------------------------
 Cartesian Forces:  Max     0.002291873 RMS     0.001323213
 Force constants in Cartesian coordinates: 
                1             2             3             4             5 
      1  0.103508D-02
      2  0.000000D+00  0.103508D-02
      3  0.000000D+00  0.000000D+00  0.824565D+00
      4 -0.103508D-02  0.000000D+00  0.000000D+00  0.103508D-02
      5  0.000000D+00 -0.103508D-02  0.000000D+00  0.000000D+00  0.103508D-02
      6  0.000000D+00  0.000000D+00 -0.824565D+00  0.000000D+00  0.000000D+00
                6 
      6  0.824565D+00
 FormGI is forming the generalized inverse of G from B-inverse, IUseBI=4.
 Force constants in internal coordinates: 
                1 
      1  0.824565D+00
 Leave Link  716 at Sat Jan 16 17:15:49 2021, MaxMem=   134217728 cpu:         0.1
 (Enter /Applications/gaussian09//g09/l103.exe)

 GradGradGradGradGradGradGradGradGradGradGradGradGradGradGradGradGradGrad
 Berny optimization.
 Red2BG is reusing G-inverse.
 Internal  Forces:  Max     0.002291873 RMS     0.002291873
 Search for a local minimum.
 Step number   1 out of a maximum of   20
 All quantities printed in internal units (Hartrees-Bohrs-Radians)
 RMS Force = .22919D-02 SwitMx=.10000D-02 MixMth= 1
 Mixed Optimization -- RFO/linear search
 Second derivative matrix not updated -- analytic derivatives used.
 The second derivative matrix:
                          R1
           R1           0.82456
 ITU=  0
     Eigenvalues ---    0.82456
 RFO step:  Lambda=-6.37019714D-06 EMin= 8.24564872D-01
 Linear search not attempted -- first point.
 Iteration  1 RMS(Cart)=  0.00196538 RMS(Int)=  0.00000000
 Iteration  2 RMS(Cart)=  0.00000000 RMS(Int)=  0.00000000
 ITry= 1 IFail=0 DXMaxC= 1.39D-03 DCOld= 1.00D+10 DXMaxT= 3.00D-01 DXLimC= 3.00D+00 Rises=F
 ClnCor:  largest displacement from symmetrization is 8.51D-20 for atom     2.
 Variable       Old X    -DE/DX   Delta X   Delta X   Delta X     New X
                                 (Linear)    (Quad)   (Total)
    R1        2.29788  -0.00229   0.00000  -0.00278  -0.00278   2.29510
         Item               Value     Threshold  Converged?
 Maximum Force            0.002292     0.000450     NO 
 RMS     Force            0.002292     0.000300     NO 
 Maximum Displacement     0.001390     0.001800     YES
 RMS     Displacement     0.001965     0.001200     NO 
 Predicted change in Energy=-3.185123D-06
 Lowest energy point so far.  Saving SCF results.
 GradGradGradGradGradGradGradGradGradGradGradGradGradGradGradGradGradGrad

 Leave Link  103 at Sat Jan 16 17:15:49 2021, MaxMem=   134217728 cpu:         0.0
 (Enter /Applications/gaussian09//g09/l202.exe)
                          Input orientation:                          
 ---------------------------------------------------------------------
 Center     Atomic      Atomic             Coordinates (Angstroms)
 Number     Number       Type             X           Y           Z
 ---------------------------------------------------------------------
      1          8           0        0.000000    0.000000    0.607259
      2          8           0        0.000000    0.000000   -0.607259
 ---------------------------------------------------------------------
 Stoichiometry    O2(3)
 Framework group  D*H[C*(O.O)]
 Deg. of freedom     1
 Full point group                 D*H     NOp   8
 RotChk:  IX=0 Diff= 0.00D+00
 Largest Abelian subgroup         D2H     NOp   8
 Largest concise Abelian subgroup C2      NOp   2
                         Standard orientation:                         
 ---------------------------------------------------------------------
 Center     Atomic      Atomic             Coordinates (Angstroms)
 Number     Number       Type             X           Y           Z
 ---------------------------------------------------------------------
      1          8           0        0.000000    0.000000    0.607259
      2          8           0        0.000000    0.000000   -0.607259
 ---------------------------------------------------------------------
 Rotational constants (GHZ):      0.0000000     42.8408372     42.8408372
 Leave Link  202 at Sat Jan 16 17:15:49 2021, MaxMem=   134217728 cpu:         0.0
 (Enter /Applications/gaussian09//g09/l301.exe)
 Standard basis: 6-31G(d,p) (6D, 7F)
 Ernie: Thresh=  0.10000D-02 Tol=  0.10000D-05 Strict=F.
 There are     8 symmetry adapted cartesian basis functions of AG  symmetry.
 There are     1 symmetry adapted cartesian basis functions of B1G symmetry.
 There are     3 symmetry adapted cartesian basis functions of B2G symmetry.
 There are     3 symmetry adapted cartesian basis functions of B3G symmetry.
 There are     1 symmetry adapted cartesian basis functions of AU  symmetry.
 There are     8 symmetry adapted cartesian basis functions of B1U symmetry.
 There are     3 symmetry adapted cartesian basis functions of B2U symmetry.
 There are     3 symmetry adapted cartesian basis functions of B3U symmetry.
 There are     8 symmetry adapted basis functions of AG  symmetry.
 There are     1 symmetry adapted basis functions of B1G symmetry.
 There are     3 symmetry adapted basis functions of B2G symmetry.
 There are     3 symmetry adapted basis functions of B3G symmetry.
 There are     1 symmetry adapted basis functions of AU  symmetry.
 There are     8 symmetry adapted basis functions of B1U symmetry.
 There are     3 symmetry adapted basis functions of B2U symmetry.
 There are     3 symmetry adapted basis functions of B3U symmetry.
    30 basis functions,    56 primitive gaussians,    30 cartesian basis functions
     9 alpha electrons        7 beta electrons
       nuclear repulsion energy        27.8854365178 Hartrees.
 IExCor=  402 DFT=T Ex+Corr=B3LYP ExCW=0 ScaHFX=  0.200000
 ScaDFX=  0.800000  0.720000  1.000000  0.810000 ScalE2=  1.000000  1.000000
 IRadAn=      0 IRanWt=     -1 IRanGd=            0 ICorTp=0 IEmpDi=  4
 NAtoms=    2 NActive=    2 NUniq=    1 SFac= 4.00D+00 NAtFMM=   60 NAOKFM=F Big=F
 Integral buffers will be    131072 words long.
 Raffenetti 2 integral format.
 Two-electron integral symmetry is turned on.
 Leave Link  301 at Sat Jan 16 17:15:49 2021, MaxMem=   134217728 cpu:         0.1
 (Enter /Applications/gaussian09//g09/l302.exe)
 NPDir=0 NMtPBC=     1 NCelOv=     1 NCel=       1 NClECP=     1 NCelD=      1
         NCelK=      1 NCelE2=     1 NClLst=     1 CellRange=     0.0.
 One-electron integrals computed using PRISM.
 One-electron integral symmetry used in STVInt
 NBasis=    30 RedAO= T EigKep=  1.02D-02  NBF=     8     1     3     3     1     8     3     3
 NBsUse=    30 1.00D-06 EigRej= -1.00D+00 NBFU=     8     1     3     3     1     8     3     3
 Precomputing XC quadrature grid using
 IXCGrd= 4 IRadAn=           0 IRanWt=          -1 IRanGd=           0 AccXCQ= 0.00D+00.
 Generated NRdTot=       0 NPtTot=           0 NUsed=           0 NTot=          32
 NSgBfM=    30    30    30    30    30 MxSgAt=     2 MxSgA2=     2.
 Leave Link  302 at Sat Jan 16 17:15:49 2021, MaxMem=   134217728 cpu:         0.2
 (Enter /Applications/gaussian09//g09/l303.exe)
 DipDrv:  MaxL=1.
 Leave Link  303 at Sat Jan 16 17:15:49 2021, MaxMem=   134217728 cpu:         0.1
 (Enter /Applications/gaussian09//g09/l401.exe)
 Initial guess from the checkpoint file:  "o2_triplet.chk"
 B after Tr=     0.000000    0.000000    0.000000
         Rot=    1.000000    0.000000    0.000000    0.000000 Ang=   0.00 deg.
 Guess basis will be translated and rotated to current coordinates.
 JPrj=2 DoOrth=T DoCkMO=T.
 Initial guess orbital symmetries:
 Alpha Orbitals:
       Occupied  (SGG) (SGU) (SGG) (SGU) (PIU) (PIU) (SGG) (PIG)
                 (PIG)
       Virtual   (SGG) (SGG) (SGG) (SGG) (DLTG) (DLTG) (PIG) (PIG)
                 (PIG) (PIG) (DLTU) (SGU) (SGU) (DLTU) (SGU) (SGU)
                 (SGU) (PIU) (PIU) (PIU) (PIU)
 Beta  Orbitals:
       Occupied  (SGG) (SGU) (SGG) (SGU) (SGG) (PIU) (PIU)
       Virtual   (SGG) (SGG) (SGG) (SGG) (DLTG) (DLTG) (PIG) (PIG)
                 (PIG) (PIG) (PIG) (PIG) (DLTU) (SGU) (SGU) (DLTU)
                 (SGU) (SGU) (SGU) (PIU) (PIU) (PIU) (PIU)
 The electronic state of the initial guess is 3-SGG.
 Initial guess <Sx>= 0.0000 <Sy>= 0.0000 <Sz>= 1.0000 <S**2>= 2.0066 S= 1.0022
 Leave Link  401 at Sat Jan 16 17:15:49 2021, MaxMem=   134217728 cpu:         0.2
 (Enter /Applications/gaussian09//g09/l502.exe)
 UHF open shell SCF:
 Using DIIS extrapolation, IDIIS=  1040.
 Integral symmetry usage will be decided dynamically.
 Keep R1 and R2 ints in memory in symmetry-blocked form, NReq=992529.
 IVT=       21766 IEndB=       21766 NGot=   134217728 MDV=   134162449
 LenX=   134162449 LenY=   134161108
 Requested convergence on RMS density matrix=1.00D-08 within 128 cycles.
 Requested convergence on MAX density matrix=1.00D-06.
 Requested convergence on             energy=1.00D-06.
 No special actions if energy rises.
 FoFCou: FMM=F IPFlag=           0 FMFlag=           0 FMFlg1=           0
         NFxFlg=           0 DoJE=F BraDBF=F KetDBF=F FulRan=T
         wScrn=  0.000000 ICntrl=     600 IOpCl=  0 I1Cent=           0 NGrid=           0
         NMat0=    1 NMatS0=    465 NMatT0=    0 NMatD0=    1 NMtDS0=    0 NMtDT0=    0
 Petite list used in FoFCou.

 Cycle   1  Pass 1  IDiag  1:
 E= -150.320040413074    
 DIIS: error= 2.44D-04 at cycle   1 NSaved=   1.
 NSaved= 1 IEnMin= 1 EnMin= -150.320040413074     IErMin= 1 ErrMin= 2.44D-04
 ErrMax= 2.44D-04  0.00D+00 EMaxC= 1.00D-01 BMatC= 5.56D-06 BMatP= 5.56D-06
 IDIUse=3 WtCom= 9.98D-01 WtEn= 2.44D-03
 Coeff-Com:  0.100D+01
 Coeff-En:   0.100D+01
 Coeff:      0.100D+01
 Gap=     1.554 Goal=   None    Shift=    0.000
 Gap=     0.499 Goal=   None    Shift=    0.000
 RMSDP=4.31D-05 MaxDP=2.82D-04              OVMax= 4.56D-04

 Cycle   2  Pass 1  IDiag  1:
 E= -150.320042031884     Delta-E=       -0.000001618810 Rises=F Damp=F
 DIIS: error= 5.26D-05 at cycle   2 NSaved=   2.
 NSaved= 2 IEnMin= 2 EnMin= -150.320042031884     IErMin= 2 ErrMin= 5.26D-05
 ErrMax= 5.26D-05  0.00D+00 EMaxC= 1.00D-01 BMatC= 2.42D-07 BMatP= 5.56D-06
 IDIUse=1 WtCom= 1.00D+00 WtEn= 0.00D+00
 Coeff-Com:  0.484D-01 0.952D+00
 Coeff:      0.484D-01 0.952D+00
 Gap=     0.505 Goal=   None    Shift=    0.000
 Gap=     0.344 Goal=   None    Shift=    0.000
 RMSDP=1.14D-05 MaxDP=1.08D-04 DE=-1.62D-06 OVMax= 9.67D-05

 Cycle   3  Pass 1  IDiag  1:
 E= -150.320042063833     Delta-E=       -0.000000031949 Rises=F Damp=F
 DIIS: error= 3.48D-05 at cycle   3 NSaved=   3.
 NSaved= 3 IEnMin= 3 EnMin= -150.320042063833     IErMin= 3 ErrMin= 3.48D-05
 ErrMax= 3.48D-05  0.00D+00 EMaxC= 1.00D-01 BMatC= 9.95D-08 BMatP= 2.42D-07
 IDIUse=1 WtCom= 1.00D+00 WtEn= 0.00D+00
 Coeff-Com: -0.273D-01 0.383D+00 0.645D+00
 Coeff:     -0.273D-01 0.383D+00 0.645D+00
 Gap=     0.505 Goal=   None    Shift=    0.000
 Gap=     0.344 Goal=   None    Shift=    0.000
 RMSDP=3.81D-06 MaxDP=3.42D-05 DE=-3.19D-08 OVMax= 3.47D-05

 Cycle   4  Pass 1  IDiag  1:
 E= -150.320042082427     Delta-E=       -0.000000018594 Rises=F Damp=F
 DIIS: error= 1.43D-06 at cycle   4 NSaved=   4.
 NSaved= 4 IEnMin= 4 EnMin= -150.320042082427     IErMin= 4 ErrMin= 1.43D-06
 ErrMax= 1.43D-06  0.00D+00 EMaxC= 1.00D-01 BMatC= 1.50D-10 BMatP= 9.95D-08
 IDIUse=1 WtCom= 1.00D+00 WtEn= 0.00D+00
 Coeff-Com: -0.893D-03 0.500D-02 0.261D-01 0.970D+00
 Coeff:     -0.893D-03 0.500D-02 0.261D-01 0.970D+00
 Gap=     0.505 Goal=   None    Shift=    0.000
 Gap=     0.344 Goal=   None    Shift=    0.000
 RMSDP=2.21D-07 MaxDP=2.18D-06 DE=-1.86D-08 OVMax= 2.66D-06

 Cycle   5  Pass 1  IDiag  1:
 E= -150.320042082466     Delta-E=       -0.000000000040 Rises=F Damp=F
 DIIS: error= 4.10D-07 at cycle   5 NSaved=   5.
 NSaved= 5 IEnMin= 5 EnMin= -150.320042082466     IErMin= 5 ErrMin= 4.10D-07
 ErrMax= 4.10D-07  0.00D+00 EMaxC= 1.00D-01 BMatC= 1.32D-11 BMatP= 1.50D-10
 IDIUse=1 WtCom= 1.00D+00 WtEn= 0.00D+00
 Coeff-Com:  0.883D-03-0.163D-01-0.248D-01 0.153D+00 0.887D+00
 Coeff:      0.883D-03-0.163D-01-0.248D-01 0.153D+00 0.887D+00
 Gap=     0.505 Goal=   None    Shift=    0.000
 Gap=     0.344 Goal=   None    Shift=    0.000
 RMSDP=5.47D-08 MaxDP=5.53D-07 DE=-3.98D-11 OVMax= 6.37D-07

 Cycle   6  Pass 1  IDiag  1:
 E= -150.320042082470     Delta-E=       -0.000000000003 Rises=F Damp=F
 DIIS: error= 4.47D-08 at cycle   6 NSaved=   6.
 NSaved= 6 IEnMin= 6 EnMin= -150.320042082470     IErMin= 6 ErrMin= 4.47D-08
 ErrMax= 4.47D-08  0.00D+00 EMaxC= 1.00D-01 BMatC= 1.65D-13 BMatP= 1.32D-11
 IDIUse=1 WtCom= 1.00D+00 WtEn= 0.00D+00
 Coeff-Com: -0.151D-04 0.905D-03 0.535D-03-0.427D-01-0.435D-01 0.108D+01
 Coeff:     -0.151D-04 0.905D-03 0.535D-03-0.427D-01-0.435D-01 0.108D+01
 Gap=     0.505 Goal=   None    Shift=    0.000
 Gap=     0.344 Goal=   None    Shift=    0.000
 RMSDP=8.68D-09 MaxDP=9.07D-08 DE=-3.13D-12 OVMax= 7.77D-08

 SCF Done:  E(UB3LYP) =  -150.320042082     A.U. after    6 cycles
            NFock=  6  Conv=0.87D-08     -V/T= 2.0082
 <Sx>= 0.0000 <Sy>= 0.0000 <Sz>= 1.0000 <S**2>= 2.0066 S= 1.0022
 <L.S>= 0.000000000000E+00
 KE= 1.490973689638D+02 PE=-4.106008092873D+02 EE= 8.329796172327D+01
 Annihilation of the first spin contaminant:
 S**2 before annihilation     2.0066,   after     2.0000
 Leave Link  502 at Sat Jan 16 17:15:50 2021, MaxMem=   134217728 cpu:         0.4
 (Enter /Applications/gaussian09//g09/l701.exe)
 Compute integral first derivatives.
 ... and contract with generalized density number  0.
 Leave Link  701 at Sat Jan 16 17:15:50 2021, MaxMem=   134217728 cpu:         0.2
 (Enter /Applications/gaussian09//g09/l702.exe)
 L702 exits ... SP integral derivatives will be done elsewhere.
 Leave Link  702 at Sat Jan 16 17:15:50 2021, MaxMem=   134217728 cpu:         0.1
 (Enter /Applications/gaussian09//g09/l703.exe)
 Compute integral first derivatives, UseDBF=F ICtDFT=           0.
 Integral derivatives from FoFJK, PRISM(SPDF).
 Calling FoFJK, ICntrl=      2127 FMM=F ISym2X=1 I1Cent= 0 IOpClX= 1 NMat=1 NMatS=1 NMatT=0.
 FoFJK:  IHMeth= 1 ICntrl=    2127 DoSepK=F KAlg= 0 I1Cent=   0 FoldK=F
 IRaf=         0 NMat=   1 IRICut=       1 DoRegI=T DoRafI=F ISym2E= 1.
 FoFCou: FMM=F IPFlag=           0 FMFlag=      100000 FMFlg1=         800
         NFxFlg=           0 DoJE=F BraDBF=F KetDBF=F FulRan=T
         wScrn=  0.000000 ICntrl=    2127 IOpCl=  1 I1Cent=           0 NGrid=           0
         NMat0=    1 NMatS0=      1 NMatT0=    0 NMatD0=    1 NMtDS0=    0 NMtDT0=    0
 Petite list used in FoFCou.
 Leave Link  703 at Sat Jan 16 17:15:50 2021, MaxMem=   134217728 cpu:         0.3
 (Enter /Applications/gaussian09//g09/l716.exe)
 Dipole        =-1.38050658D-30 1.92592994D-33 0.00000000D+00
 ***** Axes restored to original set *****
 -------------------------------------------------------------------
 Center     Atomic                   Forces (Hartrees/Bohr)
 Number     Number              X              Y              Z
 -------------------------------------------------------------------
      1        8           0.000000000    0.000000000    0.000012006
      2        8           0.000000000    0.000000000   -0.000012006
 -------------------------------------------------------------------
 Cartesian Forces:  Max     0.000012006 RMS     0.000006932
 Leave Link  716 at Sat Jan 16 17:15:50 2021, MaxMem=   134217728 cpu:         0.1
 (Enter /Applications/gaussian09//g09/l103.exe)

 GradGradGradGradGradGradGradGradGradGradGradGradGradGradGradGradGradGrad
 Berny optimization.
 Using GEDIIS/GDIIS optimizer.
 Red2BG is reusing G-inverse.
 Internal  Forces:  Max     0.000012006 RMS     0.000012006
 Search for a local minimum.
 Step number   2 out of a maximum of   20
 All quantities printed in internal units (Hartrees-Bohrs-Radians)
 RMS Force = .12006D-04 SwitMx=.10000D-02 MixMth= 2
 Mixed Optimization -- En-DIIS/RFO-DIIS
 Update second derivatives using D2CorX and points    1    2
 DE= -3.17D-06 DEPred=-3.19D-06 R= 9.97D-01
 TightC=F SS=  1.41D+00  RLast= 2.78D-03 DXNew= 5.0454D-01 8.3384D-03
 Trust test= 9.97D-01 RLast= 2.78D-03 DXMaxT set to 3.00D-01
 The second derivative matrix:
                          R1
           R1           0.82889
 ITU=  1  0
 Use linear search instead of GDIIS.
     Eigenvalues ---    0.82889
 RFO step:  Lambda= 0.00000000D+00 EMin= 8.28890799D-01
 Quartic linear search produced a step of -0.00518.
 Iteration  1 RMS(Cart)=  0.00001019 RMS(Int)=  0.00000000
 Iteration  2 RMS(Cart)=  0.00000000 RMS(Int)=  0.00000000
 ITry= 1 IFail=0 DXMaxC= 7.20D-06 DCOld= 1.00D+10 DXMaxT= 3.00D-01 DXLimC= 3.00D+00 Rises=F
 ClnCor:  largest displacement from symmetrization is 4.41D-22 for atom     2.
 Variable       Old X    -DE/DX   Delta X   Delta X   Delta X     New X
                                 (Linear)    (Quad)   (Total)
    R1        2.29510   0.00001   0.00001   0.00000   0.00001   2.29512
         Item               Value     Threshold  Converged?
 Maximum Force            0.000012     0.000450     YES
 RMS     Force            0.000012     0.000300     YES
 Maximum Displacement     0.000007     0.001800     YES
 RMS     Displacement     0.000010     0.001200     YES
 Predicted change in Energy=-8.694885D-11
 Optimization completed.
    -- Stationary point found.
                           ----------------------------
                           !   Optimized Parameters   !
                           ! (Angstroms and Degrees)  !
 --------------------------                            --------------------------
 ! Name  Definition              Value          Derivative Info.                !
 --------------------------------------------------------------------------------
 ! R1    R(1,2)                  1.2145         -DE/DX =    0.0                 !
 --------------------------------------------------------------------------------
 Lowest energy point so far.  Saving SCF results.
 GradGradGradGradGradGradGradGradGradGradGradGradGradGradGradGradGradGrad

 Largest change from initial coordinates is atom    1       0.001 Angstoms.
 Leave Link  103 at Sat Jan 16 17:15:50 2021, MaxMem=   134217728 cpu:         0.0
 (Enter /Applications/gaussian09//g09/l202.exe)
                          Input orientation:                          
 ---------------------------------------------------------------------
 Center     Atomic      Atomic             Coordinates (Angstroms)
 Number     Number       Type             X           Y           Z
 ---------------------------------------------------------------------
      1          8           0        0.000000    0.000000    0.607259
      2          8           0        0.000000    0.000000   -0.607259
 ---------------------------------------------------------------------
 Stoichiometry    O2(3)
 Framework group  D*H[C*(O.O)]
 Deg. of freedom     1
 Full point group                 D*H     NOp   8
 RotChk:  IX=0 Diff= 0.00D+00
 Largest Abelian subgroup         D2H     NOp   8
 Largest concise Abelian subgroup C2      NOp   2
                         Standard orientation:                         
 ---------------------------------------------------------------------
 Center     Atomic      Atomic             Coordinates (Angstroms)
 Number     Number       Type             X           Y           Z
 ---------------------------------------------------------------------
      1          8           0        0.000000    0.000000    0.607259
      2          8           0        0.000000    0.000000   -0.607259
 ---------------------------------------------------------------------
 Rotational constants (GHZ):      0.0000000     42.8408372     42.8408372
 Leave Link  202 at Sat Jan 16 17:15:50 2021, MaxMem=   134217728 cpu:         0.0
 (Enter /Applications/gaussian09//g09/l601.exe)
 Copying SCF densities to generalized density rwf, IOpCl= 1 IROHF=0.

 **********************************************************************

            Population analysis using the SCF density.

 **********************************************************************

 Orbital symmetries:
 Alpha Orbitals:
       Occupied  (SGG) (SGU) (SGG) (SGU) (PIU) (PIU) (SGG) (PIG)
                 (PIG)
       Virtual   (SGU) (SGG) (SGU) (PIU) (PIU) (SGG) (PIG) (PIG)
                 (SGU) (PIU) (PIU) (DLTG) (DLTG) (DLTU) (DLTU)
                 (SGG) (PIG) (PIG) (SGU) (SGG) (SGU)
 Beta  Orbitals:
       Occupied  (SGG) (SGU) (SGG) (SGU) (SGG) (PIU) (PIU)
       Virtual   (PIG) (PIG) (SGU) (SGG) (SGU) (PIU) (PIU) (SGG)
                 (PIG) (PIG) (SGU) (PIU) (PIU) (DLTG) (DLTG) (DLTU)
                 (DLTU) (SGG) (PIG) (PIG) (SGU) (SGG) (SGU)
 The electronic state is 3-SGG.
 Alpha  occ. eigenvalues --  -19.31226 -19.31209  -1.30184  -0.83797  -0.55941
 Alpha  occ. eigenvalues --   -0.55941  -0.54742  -0.30815  -0.30815
 Alpha virt. eigenvalues --    0.19646   0.66955   0.70864   0.77676   0.77676
 Alpha virt. eigenvalues --    0.85637   0.89571   0.89571   1.27392   1.48639
 Alpha virt. eigenvalues --    1.48639   1.51346   1.51347   1.89295   1.89297
 Alpha virt. eigenvalues --    2.39875   2.53527   2.53527   2.79545   3.15414
 Alpha virt. eigenvalues --    3.48737
  Beta  occ. eigenvalues --  -19.28294 -19.28265  -1.24393  -0.74931  -0.50777
  Beta  occ. eigenvalues --   -0.45696  -0.45696
  Beta virt. eigenvalues --   -0.11276  -0.11276   0.24069   0.68830   0.72645
  Beta virt. eigenvalues --    0.83244   0.83244   0.86822   0.95366   0.95366
  Beta virt. eigenvalues --    1.30137   1.51969   1.51969   1.56920   1.56921
  Beta virt. eigenvalues --    1.96456   1.96457   2.43489   2.57759   2.57759
  Beta virt. eigenvalues --    2.82088   3.19828   3.53197
          Condensed to atoms (all electrons):
               1          2
     1  O    7.881524   0.118476
     2  O    0.118476   7.881524
          Atomic-Atomic Spin Densities.
               1          2
     1  O    1.326320  -0.326320
     2  O   -0.326320   1.326320
 Mulliken charges and spin densities:
               1          2
     1  O    0.000000   1.000000
     2  O    0.000000   1.000000
 Sum of Mulliken charges =   0.00000   2.00000
 Mulliken charges and spin densities with hydrogens summed into heavy atoms:
               1          2
     1  O    0.000000   1.000000
     2  O    0.000000   1.000000
 Electronic spatial extent (au):  <R**2>=             43.2769
 Charge=              0.0000 electrons
 Dipole moment (field-independent basis, Debye):
    X=              0.0000    Y=              0.0000    Z=              0.0000  Tot=              0.0000
 Quadrupole moment (field-independent basis, Debye-Ang):
   XX=             -9.8034   YY=             -9.8034   ZZ=            -10.2622
   XY=              0.0000   XZ=              0.0000   YZ=              0.0000
 Traceless Quadrupole moment (field-independent basis, Debye-Ang):
   XX=              0.1529   YY=              0.1529   ZZ=             -0.3059
   XY=              0.0000   XZ=              0.0000   YZ=              0.0000
 Octapole moment (field-independent basis, Debye-Ang**2):
  XXX=              0.0000  YYY=              0.0000  ZZZ=              0.0000  XYY=              0.0000
  XXY=              0.0000  XXZ=              0.0000  XZZ=              0.0000  YZZ=              0.0000
  YYZ=              0.0000  XYZ=              0.0000
 Hexadecapole moment (field-independent basis, Debye-Ang**3):
 XXXX=             -6.4117 YYYY=             -6.4117 ZZZZ=            -27.7435 XXXY=              0.0000
 XXXZ=              0.0000 YYYX=              0.0000 YYYZ=              0.0000 ZZZX=              0.0000
 ZZZY=              0.0000 XXYY=             -2.1372 XXZZ=             -5.9166 YYZZ=             -5.9166
 XXYZ=              0.0000 YYXZ=              0.0000 ZZXY=              0.0000
 N-N= 2.788543651781D+01 E-N=-4.106008093532D+02  KE= 1.490973689638D+02
 Symmetry AG   KE= 6.922191989899D+01
 Symmetry B1G  KE= 1.782845076413D-34
 Symmetry B2G  KE= 3.040437977904D+00
 Symmetry B3G  KE= 3.040437977903D+00
 Symmetry AU   KE= 4.038207392595D-34
 Symmetry B1U  KE= 6.473540400098D+01
 Symmetry B2U  KE= 4.529584553998D+00
 Symmetry B3U  KE= 4.529584553998D+00
                          Isotropic Fermi Contact Couplings
        Atom                 a.u.       MegaHertz       Gauss      10(-4) cm-1
     1  O(17)              0.13948     -42.27499     -15.08477     -14.10142
     2  O(17)              0.13948     -42.27499     -15.08477     -14.10142
 --------------------------------------------------------
       Center         ----  Spin Dipole Couplings  ----
                      3XX-RR        3YY-RR        3ZZ-RR
 --------------------------------------------------------
     1   Atom        1.156584      1.156584     -2.313167
     2   Atom        1.156584      1.156584     -2.313167
 --------------------------------------------------------
                        XY            XZ            YZ
 --------------------------------------------------------
     1   Atom        0.000000      0.000000      0.000000
     2   Atom        0.000000      0.000000      0.000000
 --------------------------------------------------------


 ---------------------------------------------------------------------------------
              Anisotropic Spin Dipole Couplings in Principal Axis System
 ---------------------------------------------------------------------------------

       Atom             a.u.   MegaHertz   Gauss  10(-4) cm-1        Axes

              Baa    -2.3132   167.379    59.725    55.832  0.0000  0.0000  1.0000
     1 O(17)  Bbb     1.1566   -83.690   -29.863   -27.916  0.0000  1.0000  0.0000
              Bcc     1.1566   -83.690   -29.863   -27.916  1.0000  0.0000  0.0000
 
              Baa    -2.3132   167.379    59.725    55.832  0.0000  0.0000  1.0000
     2 O(17)  Bbb     1.1566   -83.690   -29.863   -27.916  0.0000  1.0000  0.0000
              Bcc     1.1566   -83.690   -29.863   -27.916  1.0000  0.0000  0.0000
 

 ---------------------------------------------------------------------------------

 No NMR shielding tensors so no spin-rotation constants.
 Leave Link  601 at Sat Jan 16 17:15:50 2021, MaxMem=   134217728 cpu:         0.3
 (Enter /Applications/gaussian09//g09/l9999.exe)
 1\1\GINC-SKYS-MACBOOK-AIR\FOpt\UB3LYP\6-31G(d,p)\O2(3)\_ICONSERVICES\1
 6-Jan-2021\0\\#p opt=calcfc freq b3lyp/6-31g(d,p) geom=connectivity\\T
 itle Card Required\\0,3\O,0.,0.,0.6072585833\O,0.,0.,-0.6072585833\\Ve
 rsion=EM64M-G09RevD.01\State=3-SGG\HF=-150.3200421\S2=2.006604\S2-1=0.
 \S2A=2.000023\RMSD=8.676e-09\RMSF=6.932e-06\Dipole=0.,0.,0.\Quadrupole
 =0.1137041,0.1137041,-0.2274083,0.,0.,0.\PG=D*H [C*(O1.O1)]\\@


 THE WORLD IS MADE UP OF THE WILLS, THE WON'TS, AND THE CANT'S:
 THE WILLS DO EVERYTHING,
 THE WON'TS DO NOTHING,
 THE CAN'TS CAN'T DO ANYTHING.

                               -- FROM WALT DISNEY'S "BLACK HOLE"
 Leave Link 9999 at Sat Jan 16 17:15:50 2021, MaxMem=   134217728 cpu:         0.1
 Job cpu time:       0 days  0 hours  0 minutes  8.2 seconds.
 File lengths (MBytes):  RWF=      5 Int=      0 D2E=      0 Chk=      1 Scr=      1
 Normal termination of Gaussian 09 at Sat Jan 16 17:15:50 2021.
 (Enter /Applications/gaussian09//g09/l1.exe)
 Link1:  Proceeding to internal job step number  2.
 ----------------------------------------------------------------------
 #P Geom=AllCheck Guess=TCheck SCRF=Check GenChk UB3LYP/6-31G(d,p) Freq
 ----------------------------------------------------------------------
 1/10=4,29=7,30=1,38=1,40=1/1,3;
 2/12=2,40=1/2;
 3/5=1,6=6,7=101,11=2,14=-4,16=1,25=1,30=1,70=2,71=2,74=-5,116=2,140=1/1,2,3;
 4/5=101/1;
 5/5=2,98=1/2;
 8/6=4,10=90,11=11/1;
 11/6=1,8=1,9=11,15=111,16=1/1,2,10;
 10/6=1/2;
 6/7=2,8=2,9=2,10=2,18=1,28=1/1;
 7/8=1,10=1,25=1/1,2,3,16;
 1/10=4,30=1/3;
 99//99;
 Leave Link    1 at Sat Jan 16 17:15:50 2021, MaxMem=   134217728 cpu:         0.1
 (Enter /Applications/gaussian09//g09/l101.exe)
 Structure from the checkpoint file:  "o2_triplet.chk"
 -------------------
 Title Card Required
 -------------------
 Charge =  0 Multiplicity = 3
 Redundant internal coordinates found in file.
 O,0,0.,0.,0.6072585833
 O,0,0.,0.,-0.6072585833
 Recover connectivity data from disk.
 NAtoms=      2 NQM=        2 NQMF=       0 NMMI=      0 NMMIF=      0
                NMic=       0 NMicF=      0.
                    Isotopes and Nuclear Properties:
 (Nuclear quadrupole moments (NQMom) in fm**2, nuclear magnetic moments (NMagM)
  in nuclear magnetons)

  Atom         1           2
 IAtWgt=          16          16
 AtmWgt=  15.9949146  15.9949146
 NucSpn=           0           0
 AtZEff=  -5.6000000  -5.6000000
 NQMom=    0.0000000   0.0000000
 NMagM=    0.0000000   0.0000000
 AtZNuc=   8.0000000   8.0000000
 Leave Link  101 at Sat Jan 16 17:15:51 2021, MaxMem=   134217728 cpu:         0.4
 (Enter /Applications/gaussian09//g09/l103.exe)

 GradGradGradGradGradGradGradGradGradGradGradGradGradGradGradGradGradGrad
 Berny optimization.
 Initialization pass.
                           ----------------------------
                           !    Initial Parameters    !
                           ! (Angstroms and Degrees)  !
 --------------------------                            --------------------------
 ! Name  Definition              Value          Derivative Info.                !
 --------------------------------------------------------------------------------
 ! R1    R(1,2)                  1.2145         calculate D2E/DX2 analytically  !
 --------------------------------------------------------------------------------
 Trust Radius=3.00D-01 FncErr=1.00D-07 GrdErr=1.00D-07
 Number of steps in this run=      2 maximum allowed number of steps=      2.
 GradGradGradGradGradGradGradGradGradGradGradGradGradGradGradGradGradGrad

 Leave Link  103 at Sat Jan 16 17:15:51 2021, MaxMem=   134217728 cpu:         0.0
 (Enter /Applications/gaussian09//g09/l202.exe)
                          Input orientation:                          
 ---------------------------------------------------------------------
 Center     Atomic      Atomic             Coordinates (Angstroms)
 Number     Number       Type             X           Y           Z
 ---------------------------------------------------------------------
      1          8           0        0.000000    0.000000    0.607259
      2          8           0        0.000000    0.000000   -0.607259
 ---------------------------------------------------------------------
 Stoichiometry    O2(3)
 Framework group  D*H[C*(O.O)]
 Deg. of freedom     1
 Full point group                 D*H     NOp   8
 RotChk:  IX=0 Diff= 0.00D+00
 Largest Abelian subgroup         D2H     NOp   8
 Largest concise Abelian subgroup C2      NOp   2
                         Standard orientation:                         
 ---------------------------------------------------------------------
 Center     Atomic      Atomic             Coordinates (Angstroms)
 Number     Number       Type             X           Y           Z
 ---------------------------------------------------------------------
      1          8           0        0.000000    0.000000    0.607259
      2          8           0        0.000000    0.000000   -0.607259
 ---------------------------------------------------------------------
 Rotational constants (GHZ):      0.0000000     42.8408372     42.8408372
 Leave Link  202 at Sat Jan 16 17:15:51 2021, MaxMem=   134217728 cpu:         0.0
 (Enter /Applications/gaussian09//g09/l301.exe)
 Standard basis: 6-31G(d,p) (6D, 7F)
 Ernie: Thresh=  0.10000D-02 Tol=  0.10000D-05 Strict=F.
 There are     8 symmetry adapted cartesian basis functions of AG  symmetry.
 There are     1 symmetry adapted cartesian basis functions of B1G symmetry.
 There are     3 symmetry adapted cartesian basis functions of B2G symmetry.
 There are     3 symmetry adapted cartesian basis functions of B3G symmetry.
 There are     1 symmetry adapted cartesian basis functions of AU  symmetry.
 There are     8 symmetry adapted cartesian basis functions of B1U symmetry.
 There are     3 symmetry adapted cartesian basis functions of B2U symmetry.
 There are     3 symmetry adapted cartesian basis functions of B3U symmetry.
 There are     8 symmetry adapted basis functions of AG  symmetry.
 There are     1 symmetry adapted basis functions of B1G symmetry.
 There are     3 symmetry adapted basis functions of B2G symmetry.
 There are     3 symmetry adapted basis functions of B3G symmetry.
 There are     1 symmetry adapted basis functions of AU  symmetry.
 There are     8 symmetry adapted basis functions of B1U symmetry.
 There are     3 symmetry adapted basis functions of B2U symmetry.
 There are     3 symmetry adapted basis functions of B3U symmetry.
    30 basis functions,    56 primitive gaussians,    30 cartesian basis functions
     9 alpha electrons        7 beta electrons
       nuclear repulsion energy        27.8854365178 Hartrees.
 IExCor=  402 DFT=T Ex+Corr=B3LYP ExCW=0 ScaHFX=  0.200000
 ScaDFX=  0.800000  0.720000  1.000000  0.810000 ScalE2=  1.000000  1.000000
 IRadAn=      0 IRanWt=     -1 IRanGd=            0 ICorTp=0 IEmpDi=  4
 NAtoms=    2 NActive=    2 NUniq=    1 SFac= 4.00D+00 NAtFMM=   60 NAOKFM=F Big=F
 Integral buffers will be    131072 words long.
 Raffenetti 2 integral format.
 Two-electron integral symmetry is turned on.
 Leave Link  301 at Sat Jan 16 17:15:51 2021, MaxMem=   134217728 cpu:         0.1
 (Enter /Applications/gaussian09//g09/l302.exe)
 NPDir=0 NMtPBC=     1 NCelOv=     1 NCel=       1 NClECP=     1 NCelD=      1
         NCelK=      1 NCelE2=     1 NClLst=     1 CellRange=     0.0.
 One-electron integrals computed using PRISM.
 One-electron integral symmetry used in STVInt
 NBasis=    30 RedAO= T EigKep=  1.02D-02  NBF=     8     1     3     3     1     8     3     3
 NBsUse=    30 1.00D-06 EigRej= -1.00D+00 NBFU=     8     1     3     3     1     8     3     3
 Precomputing XC quadrature grid using
 IXCGrd= 4 IRadAn=           0 IRanWt=          -1 IRanGd=           0 AccXCQ= 0.00D+00.
 Generated NRdTot=       0 NPtTot=           0 NUsed=           0 NTot=          32
 NSgBfM=    30    30    30    30    30 MxSgAt=     2 MxSgA2=     2.
 Leave Link  302 at Sat Jan 16 17:15:51 2021, MaxMem=   134217728 cpu:         0.3
 (Enter /Applications/gaussian09//g09/l303.exe)
 DipDrv:  MaxL=1.
 Leave Link  303 at Sat Jan 16 17:15:51 2021, MaxMem=   134217728 cpu:         0.1
 (Enter /Applications/gaussian09//g09/l401.exe)
 Initial guess from the checkpoint file:  "o2_triplet.chk"
 B after Tr=     0.000000    0.000000    0.000000
         Rot=    1.000000    0.000000    0.000000    0.000000 Ang=   0.00 deg.
 Guess basis will be translated and rotated to current coordinates.
 JPrj=2 DoOrth=T DoCkMO=T.
 Initial guess orbital symmetries:
 Alpha Orbitals:
       Occupied  (SGG) (SGU) (SGG) (SGU) (PIU) (PIU) (SGG) (PIG)
                 (PIG)
       Virtual   (SGU) (SGG) (SGU) (PIU) (PIU) (SGG) (PIG) (PIG)
                 (SGU) (PIU) (PIU) (DLTG) (DLTG) (DLTU) (DLTU)
                 (SGG) (PIG) (PIG) (SGU) (SGG) (SGU)
 Beta  Orbitals:
       Occupied  (SGG) (SGU) (SGG) (SGU) (SGG) (PIU) (PIU)
       Virtual   (PIG) (PIG) (SGU) (SGG) (SGU) (PIU) (PIU) (SGG)
                 (PIG) (PIG) (SGU) (PIU) (PIU) (DLTG) (DLTG) (DLTU)
                 (DLTU) (SGG) (PIG) (PIG) (SGU) (SGG) (SGU)
 The electronic state of the initial guess is 3-SGG.
 Initial guess <Sx>= 0.0000 <Sy>= 0.0000 <Sz>= 1.0000 <S**2>= 2.0066 S= 1.0022
 Leave Link  401 at Sat Jan 16 17:15:51 2021, MaxMem=   134217728 cpu:         0.2
 (Enter /Applications/gaussian09//g09/l502.exe)
 UHF open shell SCF:
 Using DIIS extrapolation, IDIIS=  1040.
 Integral symmetry usage will be decided dynamically.
 Keep R1 and R2 ints in memory in symmetry-blocked form, NReq=992529.
 IVT=       21766 IEndB=       21766 NGot=   134217728 MDV=   134162449
 LenX=   134162449 LenY=   134161108
 Requested convergence on RMS density matrix=1.00D-08 within 128 cycles.
 Requested convergence on MAX density matrix=1.00D-06.
 Requested convergence on             energy=1.00D-06.
 No special actions if energy rises.
 FoFCou: FMM=F IPFlag=           0 FMFlag=           0 FMFlg1=           0
         NFxFlg=           0 DoJE=F BraDBF=F KetDBF=F FulRan=T
         wScrn=  0.000000 ICntrl=     600 IOpCl=  0 I1Cent=           0 NGrid=           0
         NMat0=    1 NMatS0=    465 NMatT0=    0 NMatD0=    1 NMtDS0=    0 NMtDT0=    0
 Petite list used in FoFCou.

 Cycle   1  Pass 1  IDiag  1:
 E= -150.320042082470    
 DIIS: error= 2.30D-09 at cycle   1 NSaved=   1.
 NSaved= 1 IEnMin= 1 EnMin= -150.320042082470     IErMin= 1 ErrMin= 2.30D-09
 ErrMax= 2.30D-09  0.00D+00 EMaxC= 1.00D-01 BMatC= 2.87D-16 BMatP= 2.87D-16
 IDIUse=1 WtCom= 1.00D+00 WtEn= 0.00D+00
 Coeff-Com:  0.100D+01
 Coeff:      0.100D+01
 Gap=     0.505 Goal=   None    Shift=    0.000
 Gap=     0.344 Goal=   None    Shift=    0.000
 RMSDP=2.59D-10 MaxDP=2.24D-09              OVMax= 2.44D-09

 SCF Done:  E(UB3LYP) =  -150.320042082     A.U. after    1 cycles
            NFock=  1  Conv=0.26D-09     -V/T= 2.0082
 <Sx>= 0.0000 <Sy>= 0.0000 <Sz>= 1.0000 <S**2>= 2.0066 S= 1.0022
 <L.S>= 0.000000000000E+00
 KE= 1.490973689833D+02 PE=-4.106008093728D+02 EE= 8.329796178917D+01
 Annihilation of the first spin contaminant:
 S**2 before annihilation     2.0066,   after     2.0000
 Leave Link  502 at Sat Jan 16 17:15:51 2021, MaxMem=   134217728 cpu:         0.2
 (Enter /Applications/gaussian09//g09/l801.exe)
 DoSCS=F DFT=T ScalE2(SS,OS)=  1.000000  1.000000
 Range of M.O.s used for correlation:     1    30
 NBasis=    30 NAE=     9 NBE=     7 NFC=     0 NFV=     0
 NROrb=     30 NOA=     9 NOB=     7 NVA=    21 NVB=    23
 Leave Link  801 at Sat Jan 16 17:15:51 2021, MaxMem=   134217728 cpu:         0.1
 (Enter /Applications/gaussian09//g09/l1101.exe)
 Using compressed storage, NAtomX=     2.
 Will process      3 centers per pass.
 Leave Link 1101 at Sat Jan 16 17:15:51 2021, MaxMem=   134217728 cpu:         0.2
 (Enter /Applications/gaussian09//g09/l1102.exe)
 Symmetrizing basis deriv contribution to polar:
 IMax=3 JMax=2 DiffMx= 0.00D+00
 Leave Link 1102 at Sat Jan 16 17:15:51 2021, MaxMem=   134217728 cpu:         0.1
 (Enter /Applications/gaussian09//g09/l1110.exe)
 Forming Gx(P) for the SCF density, NAtomX=     2.
 Integral derivatives from FoFJK, PRISM(SPDF).
 Do as many integral derivatives as possible in FoFJK.
 G2DrvN: MDV=     134217608.
 G2DrvN: will do     3 centers at a time, making    1 passes.
 Calling FoFCou, ICntrl=  3107 FMM=F I1Cent=   0 AccDes= 0.00D+00.
 FoFJK:  IHMeth= 1 ICntrl=    3107 DoSepK=F KAlg= 0 I1Cent=   0 FoldK=F
 IRaf=         0 NMat=   1 IRICut=       1 DoRegI=T DoRafI=F ISym2E= 1.
 FoFCou: FMM=F IPFlag=           0 FMFlag=      100000 FMFlg1=           0
         NFxFlg=           0 DoJE=F BraDBF=F KetDBF=F FulRan=T
         wScrn=  0.000000 ICntrl=    3107 IOpCl=  1 I1Cent=           0 NGrid=           0
         NMat0=    1 NMatS0=      1 NMatT0=    0 NMatD0=    1 NMtDS0=    0 NMtDT0=    0
 Petite list used in FoFCou.
 End of G2Drv F.D. properties file   721 does not exist.
 End of G2Drv F.D. properties file   722 does not exist.
 End of G2Drv F.D. properties file   788 does not exist.
 Leave Link 1110 at Sat Jan 16 17:15:52 2021, MaxMem=   134217728 cpu:         0.3
 (Enter /Applications/gaussian09//g09/l1002.exe)
 Minotr:  UHF open shell wavefunction.
          IDoAtm=11
          Direct CPHF calculation.
          Differentiating once with respect to electric field.
                with respect to dipole field.
          Differentiating once with respect to nuclear coordinates.
          Using symmetry in CPHF.
          Requested convergence is 1.0D-08 RMS, and 1.0D-07 maximum.
          Secondary convergence is 1.0D-12 RMS, and 1.0D-12 maximum.
          NewPWx=T KeepS1=F KeepF1=F KeepIn=T MapXYZ=F SortEE=F KeepMc=T.
          MDV=     134217644 using IRadAn=       2.
 Generate precomputed XC quadrature information.
 Keep R1 and R2 ints in memory in symmetry-blocked form, NReq=970255.
 FoFCou: FMM=F IPFlag=           0 FMFlag=           0 FMFlg1=           0
         NFxFlg=           0 DoJE=F BraDBF=F KetDBF=F FulRan=T
         wScrn=  0.000000 ICntrl=     600 IOpCl=  0 I1Cent=           0 NGrid=           0
         NMat0=    1 NMatS0=    465 NMatT0=    0 NMatD0=    1 NMtDS0=    0 NMtDT0=    0
 Petite list used in FoFCou.
          Solving linear equations simultaneously, MaxMat=       0.
          There are     6 degrees of freedom in the 1st order CPHF.  IDoFFX=4 NUNeed=     6.
      6 vectors produced by pass  0 Test12= 5.83D-15 1.67D-08 XBig12= 2.75D+01 3.34D+00.
 AX will form     6 AO Fock derivatives at one time.
      6 vectors produced by pass  1 Test12= 5.83D-15 1.67D-08 XBig12= 1.51D+01 1.44D+00.
      6 vectors produced by pass  2 Test12= 5.83D-15 1.67D-08 XBig12= 8.11D-01 4.69D-01.
      6 vectors produced by pass  3 Test12= 5.83D-15 1.67D-08 XBig12= 2.33D-02 5.87D-02.
      6 vectors produced by pass  4 Test12= 5.83D-15 1.67D-08 XBig12= 3.18D-04 9.58D-03.
      6 vectors produced by pass  5 Test12= 5.83D-15 1.67D-08 XBig12= 8.92D-06 2.07D-03.
      6 vectors produced by pass  6 Test12= 5.83D-15 1.67D-08 XBig12= 2.10D-08 6.61D-05.
      2 vectors produced by pass  7 Test12= 5.83D-15 1.67D-08 XBig12= 4.02D-11 2.82D-06.
      1 vectors produced by pass  8 Test12= 5.83D-15 1.67D-08 XBig12= 1.38D-13 1.34D-07.
 InvSVY:  IOpt=1 It=  1 EMax= 8.88D-16
 Solved reduced A of dimension    45 with     6 vectors.
 FullF1:  Do perturbations    1 to     6.
 Isotropic polarizability for W=    0.000000        6.96 Bohr**3.
 End of Minotr F.D. properties file   721 does not exist.
 End of Minotr F.D. properties file   722 does not exist.
 End of Minotr F.D. properties file   788 does not exist.
 Leave Link 1002 at Sat Jan 16 17:15:52 2021, MaxMem=   134217728 cpu:         0.9
 (Enter /Applications/gaussian09//g09/l601.exe)
 Copying SCF densities to generalized density rwf, IOpCl= 1 IROHF=0.

 **********************************************************************

            Population analysis using the SCF density.

 **********************************************************************

 Orbital symmetries:
 Alpha Orbitals:
       Occupied  (SGG) (SGU) (SGG) (SGU) (PIU) (PIU) (SGG) (PIG)
                 (PIG)
       Virtual   (SGU) (SGG) (SGU) (PIU) (PIU) (SGG) (PIG) (PIG)
                 (SGU) (PIU) (PIU) (DLTG) (DLTG) (DLTU) (DLTU)
                 (SGG) (PIG) (PIG) (SGU) (SGG) (SGU)
 Beta  Orbitals:
       Occupied  (SGG) (SGU) (SGG) (SGU) (SGG) (PIU) (PIU)
       Virtual   (PIG) (PIG) (SGU) (SGG) (SGU) (PIU) (PIU) (SGG)
                 (PIG) (PIG) (SGU) (PIU) (PIU) (DLTG) (DLTG) (DLTU)
                 (DLTU) (SGG) (PIG) (PIG) (SGU) (SGG) (SGU)
 The electronic state is 3-SGG.
 Alpha  occ. eigenvalues --  -19.31226 -19.31209  -1.30184  -0.83797  -0.55941
 Alpha  occ. eigenvalues --   -0.55941  -0.54742  -0.30815  -0.30815
 Alpha virt. eigenvalues --    0.19646   0.66955   0.70864   0.77676   0.77676
 Alpha virt. eigenvalues --    0.85637   0.89571   0.89571   1.27392   1.48639
 Alpha virt. eigenvalues --    1.48639   1.51346   1.51347   1.89295   1.89297
 Alpha virt. eigenvalues --    2.39875   2.53527   2.53527   2.79545   3.15414
 Alpha virt. eigenvalues --    3.48737
  Beta  occ. eigenvalues --  -19.28294 -19.28265  -1.24393  -0.74931  -0.50777
  Beta  occ. eigenvalues --   -0.45696  -0.45696
  Beta virt. eigenvalues --   -0.11276  -0.11276   0.24069   0.68830   0.72645
  Beta virt. eigenvalues --    0.83244   0.83244   0.86822   0.95366   0.95366
  Beta virt. eigenvalues --    1.30137   1.51969   1.51969   1.56920   1.56921
  Beta virt. eigenvalues --    1.96456   1.96457   2.43489   2.57759   2.57759
  Beta virt. eigenvalues --    2.82088   3.19828   3.53197
          Condensed to atoms (all electrons):
               1          2
     1  O    7.881524   0.118476
     2  O    0.118476   7.881524
          Atomic-Atomic Spin Densities.
               1          2
     1  O    1.326320  -0.326320
     2  O   -0.326320   1.326320
 Mulliken charges and spin densities:
               1          2
     1  O    0.000000   1.000000
     2  O    0.000000   1.000000
 Sum of Mulliken charges =   0.00000   2.00000
 Mulliken charges and spin densities with hydrogens summed into heavy atoms:
               1          2
     1  O    0.000000   1.000000
     2  O    0.000000   1.000000
 APT charges:
               1
     1  O    0.000000
     2  O    0.000000
 Sum of APT charges =   0.00000
 APT charges with hydrogens summed into heavy atoms:
               1
     1  O    0.000000
     2  O    0.000000
 Electronic spatial extent (au):  <R**2>=             43.2769
 Charge=              0.0000 electrons
 Dipole moment (field-independent basis, Debye):
    X=              0.0000    Y=              0.0000    Z=              0.0000  Tot=              0.0000
 Quadrupole moment (field-independent basis, Debye-Ang):
   XX=             -9.8034   YY=             -9.8034   ZZ=            -10.2622
   XY=              0.0000   XZ=              0.0000   YZ=              0.0000
 Traceless Quadrupole moment (field-independent basis, Debye-Ang):
   XX=              0.1529   YY=              0.1529   ZZ=             -0.3059
   XY=              0.0000   XZ=              0.0000   YZ=              0.0000
 Octapole moment (field-independent basis, Debye-Ang**2):
  XXX=              0.0000  YYY=              0.0000  ZZZ=              0.0000  XYY=              0.0000
  XXY=              0.0000  XXZ=              0.0000  XZZ=              0.0000  YZZ=              0.0000
  YYZ=              0.0000  XYZ=              0.0000
 Hexadecapole moment (field-independent basis, Debye-Ang**3):
 XXXX=             -6.4117 YYYY=             -6.4117 ZZZZ=            -27.7435 XXXY=              0.0000
 XXXZ=              0.0000 YYYX=              0.0000 YYYZ=              0.0000 ZZZX=              0.0000
 ZZZY=              0.0000 XXYY=             -2.1372 XXZZ=             -5.9166 YYZZ=             -5.9166
 XXYZ=              0.0000 YYXZ=              0.0000 ZZXY=              0.0000
 N-N= 2.788543651781D+01 E-N=-4.106008093757D+02  KE= 1.490973689833D+02
 Symmetry AG   KE= 6.922191990908D+01
 Symmetry B1G  KE= 1.782845083421D-34
 Symmetry B2G  KE= 3.040437975156D+00
 Symmetry B3G  KE= 3.040437975156D+00
 Symmetry AU   KE= 4.038207341805D-34
 Symmetry B1U  KE= 6.473540400514D+01
 Symmetry B2U  KE= 4.529584559404D+00
 Symmetry B3U  KE= 4.529584559404D+00
  Exact polarizability:   4.226   0.000   4.226   0.000   0.000  12.422
 Approx polarizability:   5.308   0.000   5.308   0.000   0.000  24.254
                          Isotropic Fermi Contact Couplings
        Atom                 a.u.       MegaHertz       Gauss      10(-4) cm-1
     1  O(17)              0.13948     -42.27499     -15.08477     -14.10142
     2  O(17)              0.13948     -42.27499     -15.08477     -14.10142
 --------------------------------------------------------
       Center         ----  Spin Dipole Couplings  ----
                      3XX-RR        3YY-RR        3ZZ-RR
 --------------------------------------------------------
     1   Atom        1.156584      1.156584     -2.313167
     2   Atom        1.156584      1.156584     -2.313167
 --------------------------------------------------------
                        XY            XZ            YZ
 --------------------------------------------------------
     1   Atom        0.000000      0.000000      0.000000
     2   Atom        0.000000      0.000000      0.000000
 --------------------------------------------------------


 ---------------------------------------------------------------------------------
              Anisotropic Spin Dipole Couplings in Principal Axis System
 ---------------------------------------------------------------------------------

       Atom             a.u.   MegaHertz   Gauss  10(-4) cm-1        Axes

              Baa    -2.3132   167.379    59.725    55.832  0.0000  0.0000  1.0000
     1 O(17)  Bbb     1.1566   -83.690   -29.863   -27.916  0.0000  1.0000  0.0000
              Bcc     1.1566   -83.690   -29.863   -27.916  1.0000  0.0000  0.0000
 
              Baa    -2.3132   167.379    59.725    55.832  0.0000  0.0000  1.0000
     2 O(17)  Bbb     1.1566   -83.690   -29.863   -27.916 -0.0028  1.0000  0.0000
              Bcc     1.1566   -83.690   -29.863   -27.916  1.0000  0.0028  0.0000
 

 ---------------------------------------------------------------------------------

 No NMR shielding tensors so no spin-rotation constants.
 Leave Link  601 at Sat Jan 16 17:15:52 2021, MaxMem=   134217728 cpu:         0.3
 (Enter /Applications/gaussian09//g09/l701.exe)
 Compute integral second derivatives.
 ... and contract with generalized density number  0.
 Leave Link  701 at Sat Jan 16 17:15:52 2021, MaxMem=   134217728 cpu:         0.3
 (Enter /Applications/gaussian09//g09/l702.exe)
 L702 exits ... SP integral derivatives will be done elsewhere.
 Leave Link  702 at Sat Jan 16 17:15:52 2021, MaxMem=   134217728 cpu:         0.1
 (Enter /Applications/gaussian09//g09/l703.exe)
 Compute integral second derivatives, UseDBF=F ICtDFT=           0.
 Integral derivatives from FoFJK, PRISM(SPDF).
 Calling FoFJK, ICntrl=    100127 FMM=F ISym2X=1 I1Cent= 0 IOpClX= 1 NMat=1 NMatS=1 NMatT=0.
 FoFJK:  IHMeth= 1 ICntrl=  100127 DoSepK=F KAlg= 0 I1Cent=   0 FoldK=F
 IRaf=         0 NMat=   1 IRICut=       1 DoRegI=T DoRafI=F ISym2E= 1.
 FoFCou: FMM=F IPFlag=           0 FMFlag=      100000 FMFlg1=         800
         NFxFlg=           0 DoJE=F BraDBF=F KetDBF=F FulRan=T
         wScrn=  0.000000 ICntrl=  100127 IOpCl=  1 I1Cent=           0 NGrid=           0
         NMat0=    1 NMatS0=      1 NMatT0=    0 NMatD0=    1 NMtDS0=    0 NMtDT0=    0
 Petite list used in FoFCou.
 Leave Link  703 at Sat Jan 16 17:15:53 2021, MaxMem=   134217728 cpu:         0.6
 (Enter /Applications/gaussian09//g09/l716.exe)
 Dipole        =-1.57772181D-30-3.85185989D-34-5.01335085D-16
 Polarizability= 4.22613039D+00 2.30450697D-12 4.22613039D+00
                -1.33841707D-11-2.15409625D-11 1.24216163D+01
 Full mass-weighted force constant matrix:
 Low frequencies ---    0.0025    0.0025    0.0027   10.2198   10.2198 1659.3037
 Diagonal vibrational polarizability:
        0.0000000       0.0000000       0.0000000
 Harmonic frequencies (cm**-1), IR intensities (KM/Mole), Raman scattering
 activities (A**4/AMU), depolarization ratios for plane and unpolarized
 incident light, reduced masses (AMU), force constants (mDyne/A),
 and normal coordinates:
                      1
                     SGG
 Frequencies --   1659.3037
 Red. masses --     15.9949
 Frc consts  --     25.9468
 IR Inten    --      0.0000
  Atom  AN      X      Y      Z
     1   8     0.00   0.00   0.71
     2   8     0.00   0.00  -0.71

 -------------------
 - Thermochemistry -
 -------------------
 Temperature   298.150 Kelvin.  Pressure   1.00000 Atm.
 Atom     1 has atomic number  8 and mass  15.99491
 Atom     2 has atomic number  8 and mass  15.99491
 Molecular mass:    31.98983 amu.
 Principal axes and moments of inertia in atomic units:
                           1         2         3
     Eigenvalues --     0.00000  42.12666  42.12666
           X            0.00000   1.00000   0.00000
           Y            0.00000   0.00000   1.00000
           Z            1.00000   0.00000   0.00000
 This molecule is a prolate symmetric top.
 Rotational symmetry number  2.
 Rotational temperature (Kelvin)      2.05603
 Rotational constant (GHZ):          42.840837
 Zero-point vibrational energy       9924.8 (Joules/Mol)
                                    2.37209 (Kcal/Mol)
 Vibrational temperatures:   2387.36
          (Kelvin)
 
 Zero-point correction=                           0.003780 (Hartree/Particle)
 Thermal correction to Energy=                    0.006143
 Thermal correction to Enthalpy=                  0.007087
 Thermal correction to Gibbs Free Energy=        -0.016199
 Sum of electronic and zero-point Energies=           -150.316262
 Sum of electronic and thermal Energies=              -150.313899
 Sum of electronic and thermal Enthalpies=            -150.312955
 Sum of electronic and thermal Free Energies=         -150.336241
 
                     E (Thermal)             CV                S
                      KCal/Mol        Cal/Mol-Kelvin    Cal/Mol-Kelvin
 Total                    3.855              5.010             49.010
 Electronic               0.000              0.000              2.183
 Translational            0.889              2.981             36.321
 Rotational               0.592              1.987             10.500
 Vibrational              2.374              0.042              0.006
                       Q            Log10(Q)             Ln(Q)
 Total Bot       0.282396D+08          7.450859         17.156237
 Total V=0       0.154744D+10          9.189614         21.159867
 Vib (Bot)       0.182553D-01         -1.738610         -4.003297
 Vib (V=0)       0.100033D+01          0.000145          0.000333
 Electronic      0.300000D+01          0.477121          1.098612
 Translational   0.711169D+07          6.851973         15.777251
 Rotational      0.725061D+02          1.860375          4.283671
 ***** Axes restored to original set *****
 -------------------------------------------------------------------
 Center     Atomic                   Forces (Hartrees/Bohr)
 Number     Number              X              Y              Z
 -------------------------------------------------------------------
      1        8           0.000000000    0.000000000    0.000011999
      2        8           0.000000000    0.000000000   -0.000011999
 -------------------------------------------------------------------
 Cartesian Forces:  Max     0.000011999 RMS     0.000006928
 Force constants in Cartesian coordinates: 
                1             2             3             4             5 
      1  0.316100D-04
      2  0.000000D+00  0.316100D-04
      3  0.000000D+00  0.000000D+00  0.833288D+00
      4 -0.316100D-04  0.000000D+00  0.000000D+00  0.316100D-04
      5  0.000000D+00 -0.316100D-04  0.000000D+00  0.000000D+00  0.316100D-04
      6  0.000000D+00  0.000000D+00 -0.833288D+00  0.000000D+00  0.000000D+00
                6 
      6  0.833288D+00
 FormGI is forming the generalized inverse of G from B-inverse, IUseBI=4.
 Force constants in internal coordinates: 
                1 
      1  0.833288D+00
 Leave Link  716 at Sat Jan 16 17:15:53 2021, MaxMem=   134217728 cpu:         0.1
 (Enter /Applications/gaussian09//g09/l103.exe)

 GradGradGradGradGradGradGradGradGradGradGradGradGradGradGradGradGradGrad
 Berny optimization.
 Red2BG is reusing G-inverse.
 Internal  Forces:  Max     0.000011999 RMS     0.000011999
 Search for a local minimum.
 Step number   1 out of a maximum of    2
 All quantities printed in internal units (Hartrees-Bohrs-Radians)
 Second derivative matrix not updated -- analytic derivatives used.
 The second derivative matrix:
                          R1
           R1           0.83329
 ITU=  0
     Eigenvalues ---    0.83329
 Angle between quadratic step and forces=   0.00 degrees.
 Linear search not attempted -- first point.
 Iteration  1 RMS(Cart)=  0.00001018 RMS(Int)=  0.00000000
 Iteration  2 RMS(Cart)=  0.00000000 RMS(Int)=  0.00000000
 ITry= 1 IFail=0 DXMaxC= 7.20D-06 DCOld= 1.00D+10 DXMaxT= 3.00D-01 DXLimC= 3.00D+00 Rises=F
 ClnCor:  largest displacement from symmetrization is 4.41D-22 for atom     1.
 Variable       Old X    -DE/DX   Delta X   Delta X   Delta X     New X
                                 (Linear)    (Quad)   (Total)
    R1        2.29510   0.00001   0.00000   0.00001   0.00001   2.29512
         Item               Value     Threshold  Converged?
 Maximum Force            0.000012     0.000450     YES
 RMS     Force            0.000012     0.000300     YES
 Maximum Displacement     0.000007     0.001800     YES
 RMS     Displacement     0.000010     0.001200     YES
 Predicted change in Energy=-8.639542D-11
 Optimization completed.
    -- Stationary point found.
                           ----------------------------
                           !   Optimized Parameters   !
                           ! (Angstroms and Degrees)  !
 --------------------------                            --------------------------
 ! Name  Definition              Value          Derivative Info.                !
 --------------------------------------------------------------------------------
 ! R1    R(1,2)                  1.2145         -DE/DX =    0.0                 !
 --------------------------------------------------------------------------------
 GradGradGradGradGradGradGradGradGradGradGradGradGradGradGradGradGradGrad

 Leave Link  103 at Sat Jan 16 17:15:53 2021, MaxMem=   134217728 cpu:         0.0
 (Enter /Applications/gaussian09//g09/l9999.exe)
 1\1\GINC-SKYS-MACBOOK-AIR\Freq\UB3LYP\6-31G(d,p)\O2(3)\SKY\16-Jan-2021
 \0\\#P Geom=AllCheck Guess=TCheck SCRF=Check GenChk UB3LYP/6-31G(d,p) 
 Freq\\Title Card Required\\0,3\O,0.,0.,0.6072585833\O,0.,0.,-0.6072585
 833\\Version=EM64M-G09RevD.01\State=3-SGG\HF=-150.3200421\S2=2.006604\
 S2-1=0.\S2A=2.000023\RMSD=2.590e-10\RMSF=6.928e-06\ZeroPoint=0.0037802
 \Thermal=0.0061432\Dipole=0.,0.,0.\DipoleDeriv=0.,0.,0.,0.,0.,0.,0.,0.
 ,0.,0.,0.,0.,0.,0.,0.,0.,0.,0.\Polar=4.2261304,0.,4.2261304,0.,0.,12.4
 216163\PG=D*H [C*(O1.O1)]\NImag=0\\0.00003161,0.,0.00003161,0.,0.,0.83
 328800,-0.00003161,0.,0.,0.00003161,0.,-0.00003161,0.,0.,0.00003161,0.
 ,0.,-0.83328800,0.,0.,0.83328800\\0.,0.,-0.00001200,0.,0.,0.00001200\\
 \@


 In the race for quality, there is no finish line.
                               -- David T. Kearns
 Job cpu time:       0 days  0 hours  0 minutes  4.5 seconds.
 File lengths (MBytes):  RWF=      5 Int=      0 D2E=      0 Chk=      1 Scr=      1
 Normal termination of Gaussian 09 at Sat Jan 16 17:15:53 2021.
