Title Card Required                                                     
Freq      UB3LYP                                                      6-31G(d,p)          
Number of atoms                            I                2
Info1-9                                    I   N=           9
          14          14        1002           0           0         100
           6          18        -502
Charge                                     I                0
Multiplicity                               I                3
Number of electrons                        I               16
Number of alpha electrons                  I                9
Number of beta electrons                   I                7
Number of basis functions                  I               30
Number of independent functions            I               30
Number of point charges in /Mol/           I                0
Number of translation vectors              I                0
Atomic numbers                             I   N=           2
           8           8
Nuclear charges                            R   N=           2
  8.00000000E+00  8.00000000E+00
Current cartesian coordinates              R   N=           6
  2.10801959E-16  0.00000000E+00  1.14755241E+00  3.51336598E-16  0.00000000E+00
 -1.14755241E+00
Force Field                                I                0
Int Atom Types                             I   N=           2
           0           0
MM charges                                 R   N=           2
  0.00000000E+00  0.00000000E+00
Integer atomic weights                     I   N=           2
          16          16
Real atomic weights                        R   N=           2
  1.59949146E+01  1.59949146E+01
Atom fragment info                         I   N=           2
           0           0
Atom residue num                           I   N=           2
           0           0
Nuclear spins                              I   N=           2
           0           0
Nuclear ZEff                               R   N=           2
 -5.60000000E+00 -5.60000000E+00
Nuclear ZNuc                               R   N=           2
  8.00000000E+00  8.00000000E+00
Nuclear QMom                               R   N=           2
  0.00000000E+00  0.00000000E+00
Nuclear GFac                               R   N=           2
  0.00000000E+00  0.00000000E+00
MicOpt                                     I   N=           2
          -1          -1
Number of contracted shells                I                8
Number of primitive shells                 I               22
Pure/Cartesian d shells                    I                1
Pure/Cartesian f shells                    I                0
Highest angular momentum                   I                2
Largest degree of contraction              I                6
Shell types                                I   N=           8
           0          -1          -1           2           0          -1
          -1           2
Number of primitives per shell             I   N=           8
           6           3           1           1           6           3
           1           1
Shell to atom map                          I   N=           8
           1           1           1           1           2           2
           2           2
Primitive exponents                        R   N=          22
  5.48467166E+03  8.25234946E+02  1.88046958E+02  5.29645000E+01  1.68975704E+01
  5.79963534E+00  1.55396162E+01  3.59993359E+00  1.01376175E+00  2.70005823E-01
  8.00000000E-01  5.48467166E+03  8.25234946E+02  1.88046958E+02  5.29645000E+01
  1.68975704E+01  5.79963534E+00  1.55396162E+01  3.59993359E+00  1.01376175E+00
  2.70005823E-01  8.00000000E-01
Contraction coefficients                   R   N=          22
  1.83107443E-03  1.39501722E-02  6.84450781E-02  2.32714336E-01  4.70192898E-01
  3.58520853E-01 -1.10777550E-01 -1.48026263E-01  1.13076702E+00  1.00000000E+00
  1.00000000E+00  1.83107443E-03  1.39501722E-02  6.84450781E-02  2.32714336E-01
  4.70192898E-01  3.58520853E-01 -1.10777550E-01 -1.48026263E-01  1.13076702E+00
  1.00000000E+00  1.00000000E+00
P(S=P) Contraction coefficients            R   N=          22
  0.00000000E+00  0.00000000E+00  0.00000000E+00  0.00000000E+00  0.00000000E+00
  0.00000000E+00  7.08742682E-02  3.39752839E-01  7.27158577E-01  1.00000000E+00
  0.00000000E+00  0.00000000E+00  0.00000000E+00  0.00000000E+00  0.00000000E+00
  0.00000000E+00  0.00000000E+00  7.08742682E-02  3.39752839E-01  7.27158577E-01
  1.00000000E+00  0.00000000E+00
Coordinates of each shell                  R   N=          24
  0.00000000E+00  0.00000000E+00  1.14755241E+00  0.00000000E+00  0.00000000E+00
  1.14755241E+00  0.00000000E+00  0.00000000E+00  1.14755241E+00  0.00000000E+00
  0.00000000E+00  1.14755241E+00  1.40534639E-16  0.00000000E+00 -1.14755241E+00
  1.40534639E-16  0.00000000E+00 -1.14755241E+00  1.40534639E-16  0.00000000E+00
 -1.14755241E+00  1.40534639E-16  0.00000000E+00 -1.14755241E+00
Constraint Structure                       R   N=           6
  0.00000000E+00  0.00000000E+00  1.14755241E+00  1.40534639E-16  0.00000000E+00
 -1.14755241E+00
Num ILSW                                   I              100
ILSW                                       I   N=         100
           1           1           0           0           2           0
           0           0           0           0         402          -1
           0           0           0           0           2           0
           0           0           0           0           1           0
           1           0           0           0           0           0
           0           0      100000           0          -1           0
           0           0           0           0           0           0
           0           0           0           1           0           0
           0           0           1           0           0           0
           0           0           4          41           0           0
           0           0           5           0           0           0
           0           0           0           2           0           0
           0           0           0           0           0           0
           0           0           0           0           0           0
           0           0           0           0           0           0
           0           0           0           0           0           0
           0           0           0           0
Num RLSW                                   I               41
RLSW                                       R   N=          41
  8.00000000E-01  7.20000000E-01  1.00000000E+00  8.10000000E-01  2.00000000E-01
  0.00000000E+00  0.00000000E+00  1.00000000E+00  0.00000000E+00  0.00000000E+00
  0.00000000E+00  0.00000000E+00  1.00000000E+00  0.00000000E+00  0.00000000E+00
  0.00000000E+00  0.00000000E+00  1.00000000E+00  0.00000000E+00  0.00000000E+00
  0.00000000E+00  0.00000000E+00  1.00000000E+00  0.00000000E+00  0.00000000E+00
  0.00000000E+00  0.00000000E+00  1.00000000E+00  0.00000000E+00  0.00000000E+00
  0.00000000E+00  0.00000000E+00  1.00000000E+00  0.00000000E+00  0.00000000E+00
  0.00000000E+00  0.00000000E+00  0.00000000E+00  1.00000000E+00  1.00000000E+00
  0.00000000E+00
MxBond                                     I                1
NBond                                      I   N=           2
           1           1
IBond                                      I   N=           2
           2           1
RBond                                      R   N=           2
  1.50000000E+00  1.50000000E+00
Virial Ratio                               R      2.008200500836908E+00
SCF Energy                                 R     -1.503200420824695E+02
Total Energy                               R     -1.503200420824695E+02
S**2                                       R      2.006604272457248E+00
S**2 after annihilation                    R      2.000022855195290E+00
RMS Force                                  R      6.927831201037280E-06
RMS Density                                R      2.589994173963755E-10
External E-field                           R   N=          35
  0.00000000E+00  0.00000000E+00  0.00000000E+00  0.00000000E+00  0.00000000E+00
  0.00000000E+00  0.00000000E+00  0.00000000E+00  0.00000000E+00  0.00000000E+00
  0.00000000E+00  0.00000000E+00  0.00000000E+00  0.00000000E+00  0.00000000E+00
  0.00000000E+00  0.00000000E+00  0.00000000E+00  0.00000000E+00  0.00000000E+00
  0.00000000E+00  0.00000000E+00  0.00000000E+00  0.00000000E+00  0.00000000E+00
  0.00000000E+00  0.00000000E+00  0.00000000E+00  0.00000000E+00  0.00000000E+00
  0.00000000E+00  0.00000000E+00  0.00000000E+00  0.00000000E+00  0.00000000E+00
IOpCl                                      I                1
IROHF                                      I                0
Alpha Orbital Energies                     R   N=          30
 -1.93122642E+01 -1.93120889E+01 -1.30184124E+00 -8.37974237E-01 -5.59409046E-01
 -5.59409046E-01 -5.47422659E-01 -3.08147818E-01 -3.08147818E-01  1.96457096E-01
  6.69546647E-01  7.08636938E-01  7.76761106E-01  7.76761106E-01  8.56367701E-01
  8.95705122E-01  8.95705122E-01  1.27391745E+00  1.48638760E+00  1.48638760E+00
  1.51346316E+00  1.51347314E+00  1.89295333E+00  1.89296560E+00  2.39875009E+00
  2.53526953E+00  2.53526953E+00  2.79544714E+00  3.15413639E+00  3.48737087E+00
Beta Orbital Energies                      R   N=          30
 -1.92829443E+01 -1.92826454E+01 -1.24392991E+00 -7.49308256E-01 -5.07766739E-01
 -4.56956951E-01 -4.56956951E-01 -1.12758168E-01 -1.12758168E-01  2.40694454E-01
  6.88302940E-01  7.26445647E-01  8.32438306E-01  8.32438306E-01  8.68215452E-01
  9.53658207E-01  9.53658207E-01  1.30136969E+00  1.51969357E+00  1.51969357E+00
  1.56919863E+00  1.56920641E+00  1.96456461E+00  1.96457459E+00  2.43489413E+00
  2.57759007E+00  2.57759007E+00  2.82087694E+00  3.19828258E+00  3.53196962E+00
Alpha MO coefficients                      R   N=         900
  7.02056327E-01  1.97503007E-02  0.00000000E+00  0.00000000E+00 -1.24210538E-03
  5.29166568E-03  0.00000000E+00  0.00000000E+00  4.13899576E-04 -5.17606857E-03
 -5.17606857E-03 -5.63246365E-03  0.00000000E+00  0.00000000E+00  0.00000000E+00
  7.02056327E-01  1.97503007E-02  0.00000000E+00  0.00000000E+00  1.24210538E-03
  5.29166568E-03  0.00000000E+00  0.00000000E+00 -4.13899576E-04 -5.17606857E-03
 -5.17606857E-03 -5.63246365E-03  0.00000000E+00  0.00000000E+00  0.00000000E+00
  7.01883672E-01  1.85301823E-02  0.00000000E+00  0.00000000E+00 -7.63907530E-04
  9.93540587E-03  0.00000000E+00  0.00000000E+00 -1.83444746E-03 -5.88131544E-03
 -5.88131544E-03 -5.06296106E-03  0.00000000E+00  0.00000000E+00  0.00000000E+00
 -7.01883672E-01 -1.85301823E-02  0.00000000E+00  0.00000000E+00 -7.63907530E-04
 -9.93540587E-03  0.00000000E+00  0.00000000E+00 -1.83444746E-03  5.88131544E-03
  5.88131544E-03  5.06296106E-03  0.00000000E+00  0.00000000E+00  0.00000000E+00
 -1.53135284E-01  3.63843886E-01  0.00000000E+00  0.00000000E+00 -1.76949482E-01
  2.21803715E-01  0.00000000E+00  0.00000000E+00 -4.23396142E-02 -3.94240044E-03
 -3.94240044E-03  2.82317340E-02  0.00000000E+00  0.00000000E+00  0.00000000E+00
 -1.53135284E-01  3.63843886E-01  0.00000000E+00  0.00000000E+00  1.76949482E-01
  2.21803715E-01  0.00000000E+00  0.00000000E+00  4.23396142E-02 -3.94240044E-03
 -3.94240044E-03  2.82317340E-02  0.00000000E+00  0.00000000E+00  0.00000000E+00
 -1.67204199E-01  3.98235227E-01  0.00000000E+00  0.00000000E+00  1.28217550E-01
  4.73426992E-01  0.00000000E+00  0.00000000E+00  2.78036509E-02  3.50395948E-03
  3.50395948E-03 -2.35474288E-02  0.00000000E+00  0.00000000E+00  0.00000000E+00
  1.67204199E-01 -3.98235227E-01  0.00000000E+00  0.00000000E+00  1.28217550E-01
 -4.73426992E-01  0.00000000E+00  0.00000000E+00  2.78036509E-02 -3.50395948E-03
 -3.50395948E-03  2.35474288E-02  0.00000000E+00  0.00000000E+00  0.00000000E+00
  0.00000000E+00  0.00000000E+00  0.00000000E+00  4.76439225E-01  0.00000000E+00
  0.00000000E+00  0.00000000E+00  2.52105540E-01  0.00000000E+00  0.00000000E+00
  0.00000000E+00  0.00000000E+00  0.00000000E+00  0.00000000E+00 -3.00510375E-02
  0.00000000E+00  0.00000000E+00  0.00000000E+00  4.76439225E-01  0.00000000E+00
  0.00000000E+00  0.00000000E+00  2.52105540E-01  0.00000000E+00  0.00000000E+00
  0.00000000E+00  0.00000000E+00  0.00000000E+00  0.00000000E+00  3.00510375E-02
  0.00000000E+00  0.00000000E+00  4.76439225E-01  0.00000000E+00  0.00000000E+00
  0.00000000E+00  2.52105540E-01  0.00000000E+00  0.00000000E+00  0.00000000E+00
  0.00000000E+00  0.00000000E+00  0.00000000E+00 -3.00510375E-02  0.00000000E+00
  0.00000000E+00  0.00000000E+00  4.76439225E-01  0.00000000E+00  0.00000000E+00
  0.00000000E+00  2.52105540E-01  0.00000000E+00  0.00000000E+00  0.00000000E+00
  0.00000000E+00  0.00000000E+00  0.00000000E+00  3.00510375E-02  0.00000000E+00
 -6.02319917E-02  1.15764908E-01  0.00000000E+00  0.00000000E+00  4.72422497E-01
  2.81395207E-01  0.00000000E+00  0.00000000E+00  2.20021780E-01  3.26950694E-03
  3.26950694E-03 -3.69760289E-02  0.00000000E+00  0.00000000E+00  0.00000000E+00
 -6.02319917E-02  1.15764908E-01  0.00000000E+00  0.00000000E+00 -4.72422497E-01
  2.81395207E-01  0.00000000E+00  0.00000000E+00 -2.20021780E-01  3.26950694E-03
  3.26950694E-03 -3.69760289E-02  0.00000000E+00  0.00000000E+00  0.00000000E+00
  0.00000000E+00  0.00000000E+00  0.00000000E+00  5.45156575E-01  0.00000000E+00
  0.00000000E+00  0.00000000E+00  3.76702494E-01  0.00000000E+00  0.00000000E+00
  0.00000000E+00  0.00000000E+00  0.00000000E+00  0.00000000E+00  6.08356083E-03
  0.00000000E+00  0.00000000E+00  0.00000000E+00 -5.45156575E-01  0.00000000E+00
  0.00000000E+00  0.00000000E+00 -3.76702494E-01  0.00000000E+00  0.00000000E+00
  0.00000000E+00  0.00000000E+00  0.00000000E+00  0.00000000E+00  6.08356083E-03
  0.00000000E+00  0.00000000E+00  5.45156575E-01  0.00000000E+00  0.00000000E+00
  0.00000000E+00  3.76702494E-01  0.00000000E+00  0.00000000E+00  0.00000000E+00
  0.00000000E+00  0.00000000E+00  0.00000000E+00  6.08356083E-03  0.00000000E+00
  0.00000000E+00  0.00000000E+00 -5.45156575E-01  0.00000000E+00  0.00000000E+00
  0.00000000E+00 -3.76702494E-01  0.00000000E+00  0.00000000E+00  0.00000000E+00
  0.00000000E+00  0.00000000E+00  0.00000000E+00  6.08356083E-03  0.00000000E+00
 -8.83066570E-02  2.42376503E-01  0.00000000E+00  0.00000000E+00 -5.27774514E-01
  1.01943368E+00  0.00000000E+00  0.00000000E+00 -9.86760173E-01  1.07660025E-02
  1.07660025E-02 -5.72236838E-03  0.00000000E+00  0.00000000E+00  0.00000000E+00
  8.83066570E-02 -2.42376503E-01  0.00000000E+00  0.00000000E+00 -5.27774514E-01
 -1.01943368E+00  0.00000000E+00  0.00000000E+00 -9.86760173E-01 -1.07660025E-02
 -1.07660025E-02  5.72236838E-03  0.00000000E+00  0.00000000E+00  0.00000000E+00
 -1.63713975E-02 -9.18229682E-01  0.00000000E+00  0.00000000E+00 -1.15409653E-01
  1.39695760E+00  0.00000000E+00  0.00000000E+00  2.59666340E-02 -2.61618416E-01
 -2.61618416E-01 -3.50959157E-01  0.00000000E+00  0.00000000E+00  0.00000000E+00
 -1.63713975E-02 -9.18229682E-01  0.00000000E+00  0.00000000E+00  1.15409653E-01
  1.39695760E+00  0.00000000E+00  0.00000000E+00 -2.59666340E-02 -2.61618416E-01
 -2.61618416E-01 -3.50959157E-01  0.00000000E+00  0.00000000E+00  0.00000000E+00
  2.16156240E-04 -2.79034029E-01  0.00000000E+00  0.00000000E+00 -5.38651828E-01
 -5.95937087E-01  0.00000000E+00  0.00000000E+00  1.43124831E+00 -5.27516941E-02
 -5.27516941E-02 -3.65471205E-01  0.00000000E+00  0.00000000E+00  0.00000000E+00
 -2.16156240E-04  2.79034029E-01  0.00000000E+00  0.00000000E+00 -5.38651828E-01
  5.95937087E-01  0.00000000E+00  0.00000000E+00  1.43124831E+00  5.27516941E-02
  5.27516941E-02  3.65471205E-01  0.00000000E+00  0.00000000E+00  0.00000000E+00
  0.00000000E+00  0.00000000E+00  0.00000000E+00  6.49533900E-01  0.00000000E+00
  0.00000000E+00  0.00000000E+00 -6.39348813E-01  0.00000000E+00  0.00000000E+00
  0.00000000E+00  0.00000000E+00  0.00000000E+00  0.00000000E+00 -6.63361329E-02
  0.00000000E+00  0.00000000E+00  0.00000000E+00  6.49533900E-01  0.00000000E+00
  0.00000000E+00  0.00000000E+00 -6.39348813E-01  0.00000000E+00  0.00000000E+00
  0.00000000E+00  0.00000000E+00  0.00000000E+00  0.00000000E+00  6.63361329E-02
  0.00000000E+00  0.00000000E+00  6.49533900E-01  0.00000000E+00  0.00000000E+00
  0.00000000E+00 -6.39348813E-01  0.00000000E+00  0.00000000E+00  0.00000000E+00
  0.00000000E+00  0.00000000E+00  0.00000000E+00 -6.63361329E-02  0.00000000E+00
  0.00000000E+00  0.00000000E+00  6.49533900E-01  0.00000000E+00  0.00000000E+00
  0.00000000E+00 -6.39348813E-01  0.00000000E+00  0.00000000E+00  0.00000000E+00
  0.00000000E+00  0.00000000E+00  0.00000000E+00  6.63361329E-02  0.00000000E+00
  2.15119755E-02  5.30406566E-02  0.00000000E+00  0.00000000E+00 -5.34360582E-01
  1.21399926E-01  0.00000000E+00  0.00000000E+00  7.95323388E-01 -5.68366794E-02
 -5.68366794E-02  1.75798040E-01  0.00000000E+00  0.00000000E+00  0.00000000E+00
  2.15119755E-02  5.30406566E-02  0.00000000E+00  0.00000000E+00  5.34360582E-01
  1.21399926E-01  0.00000000E+00  0.00000000E+00 -7.95323388E-01 -5.68366794E-02
 -5.68366794E-02  1.75798040E-01  0.00000000E+00  0.00000000E+00  0.00000000E+00
  0.00000000E+00  0.00000000E+00  0.00000000E+00 -6.23967441E-01  0.00000000E+00
  0.00000000E+00  0.00000000E+00  1.07106666E+00  0.00000000E+00  0.00000000E+00
  0.00000000E+00  0.00000000E+00  0.00000000E+00  0.00000000E+00  1.65949048E-03
  0.00000000E+00  0.00000000E+00  0.00000000E+00  6.23967441E-01  0.00000000E+00
  0.00000000E+00  0.00000000E+00 -1.07106666E+00  0.00000000E+00  0.00000000E+00
  0.00000000E+00  0.00000000E+00  0.00000000E+00  0.00000000E+00  1.65949048E-03
  0.00000000E+00  0.00000000E+00 -6.23967441E-01  0.00000000E+00  0.00000000E+00
  0.00000000E+00  1.07106666E+00  0.00000000E+00  0.00000000E+00  0.00000000E+00
  0.00000000E+00  0.00000000E+00  0.00000000E+00  1.65949048E-03  0.00000000E+00
  0.00000000E+00  0.00000000E+00  6.23967441E-01  0.00000000E+00  0.00000000E+00
  0.00000000E+00 -1.07106666E+00  0.00000000E+00  0.00000000E+00  0.00000000E+00
  0.00000000E+00  0.00000000E+00  0.00000000E+00  1.65949048E-03  0.00000000E+00
 -7.03239835E-02 -1.26430925E+00  0.00000000E+00  0.00000000E+00  1.99783597E-01
  4.85198973E+00  0.00000000E+00  0.00000000E+00 -2.34757814E+00 -3.28002521E-01
 -3.28002521E-01 -2.71339960E-01  0.00000000E+00  0.00000000E+00  0.00000000E+00
  7.03239835E-02  1.26430925E+00  0.00000000E+00  0.00000000E+00  1.99783597E-01
 -4.85198973E+00  0.00000000E+00  0.00000000E+00 -2.34757814E+00  3.28002521E-01
  3.28002521E-01  2.71339960E-01  0.00000000E+00  0.00000000E+00  0.00000000E+00
  0.00000000E+00  0.00000000E+00  0.00000000E+00  1.46995145E-01  0.00000000E+00
  0.00000000E+00  0.00000000E+00  2.30552688E-02  0.00000000E+00  0.00000000E+00
  0.00000000E+00  0.00000000E+00  0.00000000E+00  0.00000000E+00  6.05812120E-01
  0.00000000E+00  0.00000000E+00  0.00000000E+00  1.46995145E-01  0.00000000E+00
  0.00000000E+00  0.00000000E+00  2.30552688E-02  0.00000000E+00  0.00000000E+00
  0.00000000E+00  0.00000000E+00  0.00000000E+00  0.00000000E+00 -6.05812120E-01
  0.00000000E+00  0.00000000E+00  1.46995145E-01  0.00000000E+00  0.00000000E+00
  0.00000000E+00  2.30552688E-02  0.00000000E+00  0.00000000E+00  0.00000000E+00
  0.00000000E+00  0.00000000E+00  0.00000000E+00  6.05812120E-01  0.00000000E+00
  0.00000000E+00  0.00000000E+00  1.46995145E-01  0.00000000E+00  0.00000000E+00
  0.00000000E+00  2.30552688E-02  0.00000000E+00  0.00000000E+00  0.00000000E+00
  0.00000000E+00  0.00000000E+00  0.00000000E+00 -6.05812120E-01  0.00000000E+00
  3.23306685E-15 -2.25829020E-14  0.00000000E+00  0.00000000E+00 -8.86899512E-15
  1.10175510E-14  0.00000000E+00  0.00000000E+00  9.74535398E-15  5.78224196E-01
 -5.78224196E-01 -3.09462061E-15  0.00000000E+00  0.00000000E+00  0.00000000E+00
  3.23306685E-15 -2.25829020E-14  0.00000000E+00  0.00000000E+00  8.86899512E-15
  1.10175510E-14  0.00000000E+00  0.00000000E+00 -9.74535398E-15  5.78224196E-01
 -5.78224196E-01 -3.09462061E-15  0.00000000E+00  0.00000000E+00  0.00000000E+00
  0.00000000E+00  0.00000000E+00  0.00000000E+00  0.00000000E+00  0.00000000E+00
  0.00000000E+00  0.00000000E+00  0.00000000E+00  0.00000000E+00  0.00000000E+00
  0.00000000E+00  0.00000000E+00  6.67675790E-01  0.00000000E+00  0.00000000E+00
  0.00000000E+00  0.00000000E+00  0.00000000E+00  0.00000000E+00  0.00000000E+00
  0.00000000E+00  0.00000000E+00  0.00000000E+00  0.00000000E+00  0.00000000E+00
  0.00000000E+00  0.00000000E+00  6.67675790E-01  0.00000000E+00  0.00000000E+00
  1.11006151E-15 -1.47214650E-14  0.00000000E+00  0.00000000E+00  7.66323204E-15
  1.86170898E-14  0.00000000E+00  0.00000000E+00 -9.31837749E-15  6.53386183E-01
 -6.53386183E-01 -1.28655674E-14  0.00000000E+00  0.00000000E+00  0.00000000E+00
 -1.11006151E-15  1.47214650E-14  0.00000000E+00  0.00000000E+00  7.66323204E-15
 -1.86170898E-14  0.00000000E+00  0.00000000E+00 -9.31837749E-15 -6.53386183E-01
  6.53386183E-01  1.28655674E-14  0.00000000E+00  0.00000000E+00  0.00000000E+00
  0.00000000E+00  0.00000000E+00  0.00000000E+00  0.00000000E+00  0.00000000E+00
  0.00000000E+00  0.00000000E+00  0.00000000E+00  0.00000000E+00  0.00000000E+00
  0.00000000E+00  0.00000000E+00  7.54465378E-01  0.00000000E+00  0.00000000E+00
  0.00000000E+00  0.00000000E+00  0.00000000E+00  0.00000000E+00  0.00000000E+00
  0.00000000E+00  0.00000000E+00  0.00000000E+00  0.00000000E+00  0.00000000E+00
  0.00000000E+00  0.00000000E+00 -7.54465378E-01  0.00000000E+00  0.00000000E+00
  5.07673259E-02  4.81052557E-01  0.00000000E+00  0.00000000E+00 -4.52599140E-01
 -5.49092032E-01  0.00000000E+00  0.00000000E+00  4.59558053E-01  5.74071402E-01
  5.74071402E-01 -5.38788294E-01  0.00000000E+00  0.00000000E+00  0.00000000E+00
  5.07673259E-02  4.81052557E-01  0.00000000E+00  0.00000000E+00  4.52599140E-01
 -5.49092032E-01  0.00000000E+00  0.00000000E+00 -4.59558053E-01  5.74071402E-01
  5.74071402E-01 -5.38788294E-01  0.00000000E+00  0.00000000E+00  0.00000000E+00
  0.00000000E+00  0.00000000E+00  0.00000000E+00 -1.04765824E-02  0.00000000E+00
  0.00000000E+00  0.00000000E+00 -5.00636670E-01  0.00000000E+00  0.00000000E+00
  0.00000000E+00  0.00000000E+00  0.00000000E+00  0.00000000E+00  1.01562207E+00
  0.00000000E+00  0.00000000E+00  0.00000000E+00  1.04765824E-02  0.00000000E+00
  0.00000000E+00  0.00000000E+00  5.00636670E-01  0.00000000E+00  0.00000000E+00
  0.00000000E+00  0.00000000E+00  0.00000000E+00  0.00000000E+00  1.01562207E+00
  0.00000000E+00  0.00000000E+00 -1.04765824E-02  0.00000000E+00  0.00000000E+00
  0.00000000E+00 -5.00636670E-01  0.00000000E+00  0.00000000E+00  0.00000000E+00
  0.00000000E+00  0.00000000E+00  0.00000000E+00  1.01562207E+00  0.00000000E+00
  0.00000000E+00  0.00000000E+00  1.04765824E-02  0.00000000E+00  0.00000000E+00
  0.00000000E+00  5.00636670E-01  0.00000000E+00  0.00000000E+00  0.00000000E+00
  0.00000000E+00  0.00000000E+00  0.00000000E+00  1.01562207E+00  0.00000000E+00
 -3.46669831E-02 -3.96408434E-01  0.00000000E+00  0.00000000E+00 -5.46435425E-01
  3.35735945E+00  0.00000000E+00  0.00000000E+00 -2.21042888E+00 -5.26625733E-01
 -5.26625733E-01  1.43635480E+00  0.00000000E+00  0.00000000E+00  0.00000000E+00
  3.46669831E-02  3.96408434E-01  0.00000000E+00  0.00000000E+00 -5.46435425E-01
 -3.35735945E+00  0.00000000E+00  0.00000000E+00 -2.21042888E+00  5.26625733E-01
  5.26625733E-01 -1.43635480E+00  0.00000000E+00  0.00000000E+00  0.00000000E+00
 -2.87298601E-01  5.16588847E-01  0.00000000E+00  0.00000000E+00 -7.36308945E-02
  1.42538059E+00  0.00000000E+00  0.00000000E+00 -4.59536918E-02 -9.33367301E-01
 -9.33367301E-01 -8.67695436E-01  0.00000000E+00  0.00000000E+00  0.00000000E+00
 -2.87298601E-01  5.16588847E-01  0.00000000E+00  0.00000000E+00  7.36308945E-02
  1.42538059E+00  0.00000000E+00  0.00000000E+00  4.59536918E-02 -9.33367301E-01
 -9.33367301E-01 -8.67695436E-01  0.00000000E+00  0.00000000E+00  0.00000000E+00
 -3.47544774E-01 -2.15811523E-02  0.00000000E+00  0.00000000E+00  1.92939138E-01
  4.11807997E+00  0.00000000E+00  0.00000000E+00 -1.19212544E+00 -1.23723569E+00
 -1.23723569E+00 -1.02614869E+00  0.00000000E+00  0.00000000E+00  0.00000000E+00
  3.47544774E-01  2.15811523E-02  0.00000000E+00  0.00000000E+00  1.92939138E-01
 -4.11807997E+00  0.00000000E+00  0.00000000E+00 -1.19212544E+00  1.23723569E+00
  1.23723569E+00  1.02614869E+00  0.00000000E+00  0.00000000E+00  0.00000000E+00
Beta MO coefficients                       R   N=         900
  7.02396652E-01  1.85526180E-02  0.00000000E+00  0.00000000E+00 -1.16735947E-03
  4.64228791E-03  0.00000000E+00  0.00000000E+00  3.64735355E-04 -4.77157554E-03
 -4.77157554E-03 -4.92851914E-03  0.00000000E+00  0.00000000E+00  0.00000000E+00
  7.02396652E-01  1.85526180E-02  0.00000000E+00  0.00000000E+00  1.16735947E-03
  4.64228791E-03  0.00000000E+00  0.00000000E+00 -3.64735355E-04 -4.77157554E-03
 -4.77157554E-03 -4.92851914E-03  0.00000000E+00  0.00000000E+00  0.00000000E+00
  7.02261873E-01  1.75461668E-02  0.00000000E+00  0.00000000E+00 -8.89223361E-04
  8.76272221E-03  0.00000000E+00  0.00000000E+00 -1.77061801E-03 -5.40172071E-03
 -5.40172071E-03 -4.18224741E-03  0.00000000E+00  0.00000000E+00  0.00000000E+00
 -7.02261873E-01 -1.75461668E-02  0.00000000E+00  0.00000000E+00 -8.89223361E-04
 -8.76272221E-03  0.00000000E+00  0.00000000E+00 -1.77061801E-03  5.40172071E-03
  5.40172071E-03  4.18224741E-03  0.00000000E+00  0.00000000E+00  0.00000000E+00
 -1.49679159E-01  3.42021319E-01  0.00000000E+00  0.00000000E+00 -1.88525266E-01
  2.26222573E-01  0.00000000E+00  0.00000000E+00 -5.14898677E-02 -8.55368620E-03
 -8.55368620E-03  3.78381613E-02  0.00000000E+00  0.00000000E+00  0.00000000E+00
 -1.49679159E-01  3.42021319E-01  0.00000000E+00  0.00000000E+00  1.88525266E-01
  2.26222573E-01  0.00000000E+00  0.00000000E+00  5.14898677E-02 -8.55368620E-03
 -8.55368620E-03  3.78381613E-02  0.00000000E+00  0.00000000E+00  0.00000000E+00
 -1.63641865E-01  3.78691678E-01  0.00000000E+00  0.00000000E+00  1.37465138E-01
  4.81382079E-01  0.00000000E+00  0.00000000E+00  4.23779306E-02 -2.09418205E-03
 -2.09418205E-03 -1.23618074E-02  0.00000000E+00  0.00000000E+00  0.00000000E+00
  1.63641865E-01 -3.78691678E-01  0.00000000E+00  0.00000000E+00  1.37465138E-01
 -4.81382079E-01  0.00000000E+00  0.00000000E+00  4.23779306E-02  2.09418205E-03
  2.09418205E-03  1.23618074E-02  0.00000000E+00  0.00000000E+00  0.00000000E+00
 -6.46059289E-02  1.14857233E-01  0.00000000E+00  0.00000000E+00  4.62341962E-01
  3.05575970E-01  0.00000000E+00  0.00000000E+00  2.24832840E-01 -2.42387869E-03
 -2.42387869E-03 -3.42814665E-02  0.00000000E+00  0.00000000E+00  0.00000000E+00
 -6.46059289E-02  1.14857233E-01  0.00000000E+00  0.00000000E+00 -4.62341962E-01
  3.05575970E-01  0.00000000E+00  0.00000000E+00 -2.24832840E-01 -2.42387869E-03
 -2.42387869E-03 -3.42814665E-02  0.00000000E+00  0.00000000E+00  0.00000000E+00
  0.00000000E+00  0.00000000E+00  4.43789564E-01  0.00000000E+00  0.00000000E+00
  0.00000000E+00  2.80391544E-01  0.00000000E+00  0.00000000E+00  0.00000000E+00
  0.00000000E+00  0.00000000E+00  0.00000000E+00 -3.78218450E-02  0.00000000E+00
  0.00000000E+00  0.00000000E+00  4.43789564E-01  0.00000000E+00  0.00000000E+00
  0.00000000E+00  2.80391544E-01  0.00000000E+00  0.00000000E+00  0.00000000E+00
  0.00000000E+00  0.00000000E+00  0.00000000E+00  3.78218450E-02  0.00000000E+00
  0.00000000E+00  0.00000000E+00  0.00000000E+00  4.43789564E-01  0.00000000E+00
  0.00000000E+00  0.00000000E+00  2.80391544E-01  0.00000000E+00  0.00000000E+00
  0.00000000E+00  0.00000000E+00  0.00000000E+00  0.00000000E+00 -3.78218450E-02
  0.00000000E+00  0.00000000E+00  0.00000000E+00  4.43789564E-01  0.00000000E+00
  0.00000000E+00  0.00000000E+00  2.80391544E-01  0.00000000E+00  0.00000000E+00
  0.00000000E+00  0.00000000E+00  0.00000000E+00  0.00000000E+00  3.78218450E-02
  0.00000000E+00  0.00000000E+00  5.10689623E-01  0.00000000E+00  0.00000000E+00
  0.00000000E+00  4.33763368E-01  0.00000000E+00  0.00000000E+00  0.00000000E+00
  0.00000000E+00  0.00000000E+00  0.00000000E+00  6.53810860E-03  0.00000000E+00
  0.00000000E+00  0.00000000E+00 -5.10689623E-01  0.00000000E+00  0.00000000E+00
  0.00000000E+00 -4.33763368E-01  0.00000000E+00  0.00000000E+00  0.00000000E+00
  0.00000000E+00  0.00000000E+00  0.00000000E+00  6.53810860E-03  0.00000000E+00
  0.00000000E+00  0.00000000E+00  0.00000000E+00  5.10689623E-01  0.00000000E+00
  0.00000000E+00  0.00000000E+00  4.33763368E-01  0.00000000E+00  0.00000000E+00
  0.00000000E+00  0.00000000E+00  0.00000000E+00  0.00000000E+00  6.53810860E-03
  0.00000000E+00  0.00000000E+00  0.00000000E+00 -5.10689623E-01  0.00000000E+00
  0.00000000E+00  0.00000000E+00 -4.33763368E-01  0.00000000E+00  0.00000000E+00
  0.00000000E+00  0.00000000E+00  0.00000000E+00  0.00000000E+00  6.53810860E-03
 -9.42425008E-02  2.42782572E-01  0.00000000E+00  0.00000000E+00 -5.11050423E-01
  1.11828978E+00  0.00000000E+00  0.00000000E+00 -1.05082645E+00  7.26667363E-03
  7.26667363E-03  1.99545440E-03  0.00000000E+00  0.00000000E+00  0.00000000E+00
  9.42425008E-02 -2.42782572E-01  0.00000000E+00  0.00000000E+00 -5.11050423E-01
 -1.11828978E+00  0.00000000E+00  0.00000000E+00 -1.05082645E+00 -7.26667363E-03
 -7.26667363E-03 -1.99545440E-03  0.00000000E+00  0.00000000E+00  0.00000000E+00
 -1.76705633E-02 -9.19146002E-01  0.00000000E+00  0.00000000E+00 -9.26793608E-02
  1.39373301E+00  0.00000000E+00  0.00000000E+00 -1.51115558E-02 -2.64266525E-01
 -2.64266525E-01 -3.67539798E-01  0.00000000E+00  0.00000000E+00  0.00000000E+00
 -1.76705633E-02 -9.19146002E-01  0.00000000E+00  0.00000000E+00  9.26793608E-02
  1.39373301E+00  0.00000000E+00  0.00000000E+00  1.51115558E-02 -2.64266525E-01