 Entering Gaussian System, Link 0=g09
 Input=pt-cl-cl.gjf
 Output=pt-cl-cl.log
 Initial command:
 /home/scicons/Gaussian09D/Gaussian09.D01/l1.exe "/tmp/Gau-73814.inp" -scrdir="/tmp/"
 Entering Link 1 = /home/scicons/Gaussian09D/Gaussian09.D01/l1.exe PID=     73815.
  
 Copyright (c) 1988,1990,1992,1993,1995,1998,2003,2009,2013,
            Gaussian, Inc.  All Rights Reserved.
  
 This is part of the Gaussian(R) 09 program.  It is based on
 the Gaussian(R) 03 system (copyright 2003, Gaussian, Inc.),
 the Gaussian(R) 98 system (copyright 1998, Gaussian, Inc.),
 the Gaussian(R) 94 system (copyright 1995, Gaussian, Inc.),
 the Gaussian 92(TM) system (copyright 1992, Gaussian, Inc.),
 the Gaussian 90(TM) system (copyright 1990, Gaussian, Inc.),
 the Gaussian 88(TM) system (copyright 1988, Gaussian, Inc.),
 the Gaussian 86(TM) system (copyright 1986, Carnegie Mellon
 University), and the Gaussian 82(TM) system (copyright 1983,
 Carnegie Mellon University). Gaussian is a federally registered
 trademark of Gaussian, Inc.
  
 This software contains proprietary and confidential information,
 including trade secrets, belonging to Gaussian, Inc.
  
 This software is provided under written license and may be
 used, copied, transmitted, or stored only in accord with that
 written license.
  
 The following legend is applicable only to US Government
 contracts under FAR:
  
                    RESTRICTED RIGHTS LEGEND
  
 Use, reproduction and disclosure by the US Government is
 subject to restrictions as set forth in subparagraphs (a)
 and (c) of the Commercial Computer Software - Restricted
 Rights clause in FAR 52.227-19.
  
 Gaussian, Inc.
 340 Quinnipiac St., Bldg. 40, Wallingford CT 06492
  
  
 ---------------------------------------------------------------
 Warning -- This program may not be used in any manner that
 competes with the business of Gaussian, Inc. or will provide
 assistance to any competitor of Gaussian, Inc.  The licensee
 of this program is prohibited from giving any competitor of
 Gaussian, Inc. access to this program.  By using this program,
 the user acknowledges that Gaussian, Inc. is engaged in the
 business of creating and licensing software in the field of
 computational chemistry and represents and warrants to the
 licensee that it is not a competitor of Gaussian, Inc. and that
 it will not use this program in any manner prohibited above.
 ---------------------------------------------------------------
  

 Cite this work as:
 Gaussian 09, Revision D.01,
 M. J. Frisch, G. W. Trucks, H. B. Schlegel, G. E. Scuseria, 
 M. A. Robb, J. R. Cheeseman, G. Scalmani, V. Barone, B. Mennucci, 
 G. A. Petersson, H. Nakatsuji, M. Caricato, X. Li, H. P. Hratchian, 
 A. F. Izmaylov, J. Bloino, G. Zheng, J. L. Sonnenberg, M. Hada, 
 M. Ehara, K. Toyota, R. Fukuda, J. Hasegawa, M. Ishida, T. Nakajima, 
 Y. Honda, O. Kitao, H. Nakai, T. Vreven, J. A. Montgomery, Jr., 
 J. E. Peralta, F. Ogliaro, M. Bearpark, J. J. Heyd, E. Brothers, 
 K. N. Kudin, V. N. Staroverov, T. Keith, R. Kobayashi, J. Normand, 
 K. Raghavachari, A. Rendell, J. C. Burant, S. S. Iyengar, J. Tomasi, 
 M. Cossi, N. Rega, J. M. Millam, M. Klene, J. E. Knox, J. B. Cross, 
 V. Bakken, C. Adamo, J. Jaramillo, R. Gomperts, R. E. Stratmann, 
 O. Yazyev, A. J. Austin, R. Cammi, C. Pomelli, J. W. Ochterski, 
 R. L. Martin, K. Morokuma, V. G. Zakrzewski, G. A. Voth, 
 P. Salvador, J. J. Dannenberg, S. Dapprich, A. D. Daniels, 
 O. Farkas, J. B. Foresman, J. V. Ortiz, J. Cioslowski, 
 and D. J. Fox, Gaussian, Inc., Wallingford CT, 2013.
 
 ******************************************
 Gaussian 09:  ES64L-G09RevD.01 24-Apr-2013
                23-Dec-2020 
 ******************************************
 %nproc=24
 Will use up to   24 processors via shared memory.
 %mem=30GB
 %chk=pt-cl-cl.chk
 ----------------------------------------------------------------------
 #p opt=(calcall, ts, noeigen) b3lyp/def2tzvp em=gd3bj scrf=(smd,solven
 t=water) geom=connectivity
 ----------------------------------------------------------------------
 1/5=1,10=4,11=1,14=-1,18=20,26=3,38=1,57=2/1,3;
 2/9=110,12=2,17=6,18=5,40=1/2;
 3/5=44,7=101,11=2,16=1,25=1,30=1,70=32201,71=2,72=1,74=-5,124=41,140=1/1,2,3;
 4//1;
 5/5=2,38=5,53=1/2;
 8/6=4,10=90,11=11/1;
 11/6=1,8=1,9=11,15=111,16=1/1,2,10;
 10/6=1/2;
 6/7=2,8=2,9=2,10=2,18=1,28=1/1;
 7/10=1,25=1/1,2,3,16;
 1/5=1,10=4,11=1,14=-1,18=20,26=3/3(3);
 2/9=110/2;
 7/8=1,9=1,25=1,44=-1/16;
 99//99;
 2/9=110/2;
 3/5=44,7=101,11=2,16=1,25=1,30=1,70=32205,71=2,72=1,74=-5,124=41,140=1/1,2,3;
 4/5=5,16=3,69=1/1;
 5/5=2,38=5,53=1/2;
 8/6=4,10=90,11=11/1;
 11/6=1,8=1,9=11,15=111,16=1/1,2,10;
 10/6=1/2;
 7/10=1,25=1/1,2,3,16;
 1/5=1,10=4,11=1,14=-1,18=20,26=3/3(-8);
 2/9=110/2;
 6/7=2,8=2,9=2,10=2,18=1,19=2,28=1/1;
 7/8=1,9=1,25=1,44=-1/16;
 99//99;
 Leave Link    1 at Wed Dec 23 10:01:34 2020, MaxMem=  4026531840 cpu:         1.3
 (Enter /home/scicons/Gaussian09D/Gaussian09.D01/l101.exe)
 -------------------
 Title Card Required
 -------------------
 Symbolic Z-matrix:
 Charge =  0 Multiplicity = 1
 Pt                   -0.51724   0.27094   0. 
 N                    -1.51224   1.99433   0. 
 H                    -0.99284   2.6791   -0.51118 
 H                    -2.40533   1.8636   -0.43048 
 Cl                   -0.51724   0.27094  -2.28 
 O                     1.43276   0.27094   0. 
 H                     1.75276   1.17592   0.01413 
 H                     1.75276  -0.16932  -0.79081 
 N                    -1.51224  -1.45245   0. 
 H                    -0.97654  -2.14664   0.48076 
 H                    -2.39066  -1.3302    0.46198 
 Cl                   -0.51724   0.27094   2.28 
 H                    -1.63856   2.3063    0.94166 
 H                    -1.66952  -1.74655  -0.94275 
 
 NAtoms=     14 NQM=       14 NQMF=       0 NMMI=      0 NMMIF=      0
                NMic=       0 NMicF=      0.
                    Isotopes and Nuclear Properties:
 (Nuclear quadrupole moments (NQMom) in fm**2, nuclear magnetic moments (NMagM)
  in nuclear magnetons)

  Atom         1           2           3           4           5           6           7           8           9          10
 IAtWgt=         195          14           1           1          35          16           1           1          14           1
 AtmWgt= 194.9648000  14.0030740   1.0078250   1.0078250  34.9688527  15.9949146   1.0078250   1.0078250  14.0030740   1.0078250
 NucSpn=           1           2           1           1           3           0           1           1           2           1
 AtZEff=   0.0000000   0.0000000   0.0000000   0.0000000   0.0000000   0.0000000   0.0000000   0.0000000   0.0000000   0.0000000
 NQMom=    0.0000000   2.0440000   0.0000000   0.0000000  -8.1650000   0.0000000   0.0000000   0.0000000   2.0440000   0.0000000
 NMagM=    0.6095000   0.4037610   2.7928460   2.7928460   0.8218740   0.0000000   2.7928460   2.7928460   0.4037610   2.7928460
 AtZNuc=  78.0000000   7.0000000   1.0000000   1.0000000  17.0000000   8.0000000   1.0000000   1.0000000   7.0000000   1.0000000

  Atom        11          12          13          14
 IAtWgt=           1          35           1           1
 AtmWgt=   1.0078250  34.9688527   1.0078250   1.0078250
 NucSpn=           1           3           1           1
 AtZEff=   0.0000000   0.0000000   0.0000000   0.0000000
 NQMom=    0.0000000  -8.1650000   0.0000000   0.0000000
 NMagM=    2.7928460   0.8218740   2.7928460   2.7928460
 AtZNuc=   1.0000000  17.0000000   1.0000000   1.0000000
 Leave Link  101 at Wed Dec 23 10:01:35 2020, MaxMem=  4026531840 cpu:        12.8
 (Enter /home/scicons/Gaussian09D/Gaussian09.D01/l103.exe)

 GradGradGradGradGradGradGradGradGradGradGradGradGradGradGradGradGradGrad
 Berny optimization.
 Initialization pass.
                           ----------------------------
                           !    Initial Parameters    !
                           ! (Angstroms and Degrees)  !
 --------------------------                            --------------------------
 ! Name  Definition              Value          Derivative Info.                !
 --------------------------------------------------------------------------------
 ! R1    R(1,2)                  1.99           calculate D2E/DX2 analytically  !
 ! R2    R(1,5)                  2.28           calculate D2E/DX2 analytically  !
 ! R3    R(1,6)                  1.95           calculate D2E/DX2 analytically  !
 ! R4    R(1,9)                  1.99           calculate D2E/DX2 analytically  !
 ! R5    R(1,12)                 2.28           calculate D2E/DX2 analytically  !
 ! R6    R(2,3)                  1.0            calculate D2E/DX2 analytically  !
 ! R7    R(2,4)                  1.0            calculate D2E/DX2 analytically  !
 ! R8    R(2,13)                 1.0            calculate D2E/DX2 analytically  !
 ! R9    R(6,7)                  0.96           calculate D2E/DX2 analytically  !
 ! R10   R(6,8)                  0.96           calculate D2E/DX2 analytically  !
 ! R11   R(9,10)                 1.0            calculate D2E/DX2 analytically  !
 ! R12   R(9,11)                 1.0            calculate D2E/DX2 analytically  !
 ! R13   R(9,14)                 1.0            calculate D2E/DX2 analytically  !
 ! A1    A(2,1,5)               90.0            calculate D2E/DX2 analytically  !
 ! A2    A(2,1,6)              120.0            calculate D2E/DX2 analytically  !
 ! A3    A(2,1,9)              120.0            calculate D2E/DX2 analytically  !
 ! A4    A(2,1,12)              90.0            calculate D2E/DX2 analytically  !
 ! A5    A(5,1,6)               90.0            calculate D2E/DX2 analytically  !
 ! A6    A(5,1,9)               90.0            calculate D2E/DX2 analytically  !
 ! A7    A(6,1,9)              120.0            calculate D2E/DX2 analytically  !
 ! A8    A(6,1,12)              90.0            calculate D2E/DX2 analytically  !
 ! A9    A(9,1,12)              90.0            calculate D2E/DX2 analytically  !
 ! A10   A(1,2,3)              109.4712         calculate D2E/DX2 analytically  !
 ! A11   A(1,2,4)              109.4712         calculate D2E/DX2 analytically  !
 ! A12   A(1,2,13)             109.4712         calculate D2E/DX2 analytically  !
 ! A13   A(3,2,4)              109.4712         calculate D2E/DX2 analytically  !
 ! A14   A(3,2,13)             109.4712         calculate D2E/DX2 analytically  !
 ! A15   A(4,2,13)             109.4712         calculate D2E/DX2 analytically  !
 ! A16   A(1,6,7)              109.4712         calculate D2E/DX2 analytically  !
 ! A17   A(1,6,8)              109.4712         calculate D2E/DX2 analytically  !
 ! A18   A(7,6,8)              109.4712         calculate D2E/DX2 analytically  !
 ! A19   A(1,9,10)             109.4712         calculate D2E/DX2 analytically  !
 ! A20   A(1,9,11)             109.4712         calculate D2E/DX2 analytically  !
 ! A21   A(1,9,14)             109.4712         calculate D2E/DX2 analytically  !
 ! A22   A(10,9,11)            109.4712         calculate D2E/DX2 analytically  !
 ! A23   A(10,9,14)            109.4712         calculate D2E/DX2 analytically  !
 ! A24   A(11,9,14)            109.4712         calculate D2E/DX2 analytically  !
 ! A25   L(5,1,12,2,-1)        180.0            calculate D2E/DX2 analytically  !
 ! A26   L(5,1,12,2,-2)        180.0            calculate D2E/DX2 analytically  !
 ! D1    D(5,1,2,3)            -57.1674         calculate D2E/DX2 analytically  !
 ! D2    D(5,1,2,4)             62.8326         calculate D2E/DX2 analytically  !
 ! D3    D(5,1,2,13)          -177.1674         calculate D2E/DX2 analytically  !
 ! D4    D(6,1,2,3)             32.8326         calculate D2E/DX2 analytically  !
 ! D5    D(6,1,2,4)            152.8326         calculate D2E/DX2 analytically  !
 ! D6    D(6,1,2,13)           -87.1674         calculate D2E/DX2 analytically  !
 ! D7    D(9,1,2,3)           -147.1674         calculate D2E/DX2 analytically  !
 ! D8    D(9,1,2,4)            -27.1674         calculate D2E/DX2 analytically  !
 ! D9    D(9,1,2,13)            92.8326         calculate D2E/DX2 analytically  !
 ! D10   D(12,1,2,3)           122.8326         calculate D2E/DX2 analytically  !
 ! D11   D(12,1,2,4)          -117.1674         calculate D2E/DX2 analytically  !
 ! D12   D(12,1,2,13)            2.8326         calculate D2E/DX2 analytically  !
 ! D13   D(2,1,6,7)              0.8947         calculate D2E/DX2 analytically  !
 ! D14   D(2,1,6,8)           -119.1053         calculate D2E/DX2 analytically  !
 ! D15   D(5,1,6,7)             90.8947         calculate D2E/DX2 analytically  !
 ! D16   D(5,1,6,8)            -29.1053         calculate D2E/DX2 analytically  !
 ! D17   D(9,1,6,7)           -179.1053         calculate D2E/DX2 analytically  !
 ! D18   D(9,1,6,8)             60.8947         calculate D2E/DX2 analytically  !
 ! D19   D(12,1,6,7)           -89.1053         calculate D2E/DX2 analytically  !
 ! D20   D(12,1,6,8)           150.8947         calculate D2E/DX2 analytically  !
 ! D21   D(2,1,9,10)          -149.3411         calculate D2E/DX2 analytically  !
 ! D22   D(2,1,9,11)           -29.3411         calculate D2E/DX2 analytically  !
 ! D23   D(2,1,9,14)            90.6589         calculate D2E/DX2 analytically  !
 ! D24   D(5,1,9,10)           120.6589         calculate D2E/DX2 analytically  !
 ! D25   D(5,1,9,11)          -119.3411         calculate D2E/DX2 analytically  !
 ! D26   D(5,1,9,14)             0.6589         calculate D2E/DX2 analytically  !
 ! D27   D(6,1,9,10)            30.6589         calculate D2E/DX2 analytically  !
 ! D28   D(6,1,9,11)           150.6589         calculate D2E/DX2 analytically  !
 ! D29   D(6,1,9,14)           -89.3411         calculate D2E/DX2 analytically  !
 ! D30   D(12,1,9,10)          -59.3411         calculate D2E/DX2 analytically  !
 ! D31   D(12,1,9,11)           60.6589         calculate D2E/DX2 analytically  !
 ! D32   D(12,1,9,14)         -179.3411         calculate D2E/DX2 analytically  !
 --------------------------------------------------------------------------------
 Trust Radius=3.00D-01 FncErr=1.00D-07 GrdErr=1.00D-06
 Number of steps in this run=     81 maximum allowed number of steps=    100.
 Search for a saddle point of order  1.
 GradGradGradGradGradGradGradGradGradGradGradGradGradGradGradGradGradGrad

 Leave Link  103 at Wed Dec 23 10:01:35 2020, MaxMem=  4026531840 cpu:         0.2
 (Enter /home/scicons/Gaussian09D/Gaussian09.D01/l202.exe)
                          Input orientation:                          
 ---------------------------------------------------------------------
 Center     Atomic      Atomic             Coordinates (Angstroms)
 Number     Number       Type             X           Y           Z
 ---------------------------------------------------------------------
      1         78           0       -0.517241    0.270936    0.000000
      2          7           0       -1.512241    1.994327    0.000000
      3          1           0       -0.992840    2.679103   -0.511178
      4          1           0       -2.405326    1.863604   -0.430479
      5         17           0       -0.517241    0.270936   -2.280000
      6          8           0        1.432759    0.270936    0.000000
      7          1           0        1.752759    1.175922    0.014133
      8          1           0        1.752759   -0.169317   -0.790808
      9          7           0       -1.512241   -1.452455    0.000000
     10          1           0       -0.976543   -2.146641    0.480763
     11          1           0       -2.390663   -1.330198    0.461984
     12         17           0       -0.517241    0.270936    2.280000
     13          1           0       -1.638558    2.306298    0.941657
     14          1           0       -1.669519   -1.746551   -0.942747
 ---------------------------------------------------------------------
                    Distance matrix (angstroms):
                    1          2          3          4          5
     1  Pt   0.000000
     2  N    1.990000   0.000000
     3  H    2.507343   1.000000   0.000000
     4  H    2.507343   1.000000   1.632993   0.000000
     5  Cl   2.280000   3.026301   3.025590   3.085803   0.000000
     6  O    1.950000   3.412199   3.456024   4.177654   3.000150
     7  H    2.443788   3.366038   3.173928   4.237954   3.351857
     8  H    2.443788   3.995868   3.966107   4.642443   2.750348
     9  N    1.990000   3.446781   4.195337   3.461092   3.026301
    10  H    2.507343   4.203060   4.926664   4.353601   3.698303
    11  H    2.507343   3.469512   4.356082   3.316184   3.686708
    12  Cl   2.280000   3.026301   3.717007   3.667172   4.560000
    13  H    2.507343   1.000000   1.632993   1.632993   3.972294
    14  H    2.507343   3.861045   4.497839   3.719818   2.680717
                    6          7          8          9         10
     6  O    0.000000
     7  H    0.960000   0.000000
     8  H    0.960000   1.567673   0.000000
     9  N    3.412199   4.191514   3.596115   0.000000
    10  H    3.446816   4.325073   3.602192   1.000000   0.000000
    11  H    4.170805   4.863039   4.481637   1.000000   1.632993
    12  Cl   3.000150   3.332574   3.844032   3.026301   3.048424
    13  H    3.802947   3.693112   4.542151   3.876969   4.525411
    14  H    3.818789   4.600918   3.771304   1.000000   1.632993
                   11         12         13         14
    11  H    0.000000
    12  Cl   3.062437   0.000000
    13  H    3.744309   2.681643   0.000000
    14  H    1.632993   3.972920   4.469621   0.000000
 Stoichiometry    Cl2H8N2OPt
 Framework group  C1[X(Cl2H8N2OPt)]
 Deg. of freedom    36
 Full point group                 C1      NOp   1
 Largest Abelian subgroup         C1      NOp   1
 Largest concise Abelian subgroup C1      NOp   1
                         Standard orientation:                         
 ---------------------------------------------------------------------
 Center     Atomic      Atomic             Coordinates (Angstroms)
 Number     Number       Type             X           Y           Z
 ---------------------------------------------------------------------
      1         78           0        0.005377    0.001434    0.006189
      2          7           0        0.025906   -1.326576   -1.475725
      3          1           0       -0.491036   -2.138083   -1.203277
      4          1           0       -0.391273   -0.923546   -2.290297
      5         17           0       -2.274346    0.005596   -0.029122
      6          8           0       -0.024431   -0.605603    1.859056
      7          1           0       -0.012397   -1.565262    1.881621
      8          1           0       -0.821392   -0.285399    2.287916
      9          7           0        0.015267    1.948933   -0.402772
     10          1           0        0.485640    2.440984    0.329782
     11          1           0        0.491000    2.105362   -1.268341
     12         17           0        2.285100   -0.002728    0.041500
     13          1           0        0.970342   -1.585442   -1.678280
     14          1           0       -0.925869    2.279097   -0.475266
 ---------------------------------------------------------------------
 Rotational constants (GHZ):      2.3135042      1.0638561      1.0590756
 Leave Link  202 at Wed Dec 23 10:01:35 2020, MaxMem=  4026531840 cpu:         0.0
 (Enter /home/scicons/Gaussian09D/Gaussian09.D01/l301.exe)
 Standard basis: def2TZVP (5D, 7F)
 Ernie: Thresh=  0.10000D-02 Tol=  0.10000D-05 Strict=F.
 There are   286 symmetry adapted cartesian basis functions of A   symmetry.
 There are   255 symmetry adapted basis functions of A   symmetry.
   255 basis functions,   430 primitive gaussians,   286 cartesian basis functions
    41 alpha electrons       41 beta electrons
       nuclear repulsion energy       564.6022066662 Hartrees.
 IExCor=  402 DFT=T Ex+Corr=B3LYP ExCW=0 ScaHFX=  0.200000
 ScaDFX=  0.800000  0.720000  1.000000  0.810000 ScalE2=  1.000000  1.000000
 IRadAn=      0 IRanWt=     -1 IRanGd=            0 ICorTp=0 IEmpDi=141
 NAtoms=   14 NActive=   14 NUniq=   14 SFac= 1.00D+00 NAtFMM=   60 NAOKFM=F Big=F
 Integral buffers will be    131072 words long.
 Raffenetti 2 integral format.
 Two-electron integral symmetry is turned on.
 R6Disp:  Grimme-D3(BJ) Dispersion energy=       -0.0300994608 Hartrees.
 Nuclear repulsion after empirical dispersion term =      564.5721072054 Hartrees.
 Force inversion solution in PCM.
 ------------------------------------------------------------------------------
 Polarizable Continuum Model (PCM)
 =================================
 Model                : PCM (using non-symmetric T matrix).
 Atomic radii         : SMD-Coulomb.
 Polarization charges : Total charges.
 Charge compensation  : None.
 Solution method      : Matrix inversion.
 Cavity type          : VdW (van der Waals Surface) (Alpha=1.000).
 Cavity algorithm     : GePol (No added spheres)
                        Default sphere list used, NSphG=   14.
                        Lebedev-Laikov grids with approx.  5.0 points / Ang**2.
                        Smoothing algorithm: Karplus/York (Gamma=1.0000).
                        Polarization charges: spherical gaussians, with
                                              point-specific exponents (IZeta= 3).
                        Self-potential: point-specific (ISelfS= 7).
                        Self-field    : sphere-specific E.n sum rule (ISelfD= 2).
 1st derivatives      : Analytical E(r).r(x)/FMM algorithm (CHGder, D1EAlg=3).
                        Cavity 1st derivative terms included.
 2nd derivatives      : Analytical E(r).r(xy)/FMM algorithm (CHGder, D2EAlg=3).
                        Cavity 2nd derivative terms included.
 Solvent              : Water, Eps=  78.355300 Eps(inf)=   1.777849
 ------------------------------------------------------------------------------
 Spheres list:
 ISph  on   Nord     Re0    Alpha      Xe            Ye            Ze
    1  Pt      1    1.7500  1.000      0.005377      0.001434      0.006189
    2   N      2    1.8900  1.000      0.025906     -1.326576     -1.475725
    3   H      3    1.2000  1.000     -0.491036     -2.138083     -1.203277
    4   H      4    1.2000  1.000     -0.391273     -0.923546     -2.290297
    5  Cl      5    2.3800  1.000     -2.274346      0.005596     -0.029122
    6   O      6    1.5200  1.000     -0.024431     -0.605603      1.859056
    7   H      7    1.2000  1.000     -0.012397     -1.565262      1.881621
    8   H      8    1.2000  1.000     -0.821392     -0.285399      2.287916
    9   N      9    1.8900  1.000      0.015267      1.948933     -0.402772
   10   H     10    1.2000  1.000      0.485640      2.440984      0.329782
   11   H     11    1.2000  1.000      0.491000      2.105362     -1.268341
   12  Cl     12    2.3800  1.000      2.285100     -0.002728      0.041500
   13   H     13    1.2000  1.000      0.970342     -1.585442     -1.678280
   14   H     14    1.2000  1.000     -0.925869      2.279097     -0.475266
 ------------------------------------------------------------------------------
 GePol: Number of generator spheres                  =      14
 GePol: Total number of spheres                      =      14
 GePol: Number of exposed spheres                    =      14 (100.00%)
 GePol: Number of points                             =    1363
 GePol: Average weight of points                     =       0.13
 GePol: Minimum weight of points                     =   0.37D-09
 GePol: Maximum weight of points                     =    0.21991
 GePol: Number of points with low weight             =      62
 GePol: Fraction of low-weight points (<1% of avg)   =       4.55%
 GePol: Cavity surface area                          =    181.844 Ang**2
 GePol: Cavity volume                                =    169.228 Ang**3
 ------------------------------------------------------------------------------
 Atomic radii for non-electrostatic terms: SMD-CDS.
 ------------------------------------------------------------------------------
 PCM non-electrostatic energy =         0.0089233838 Hartrees.
 Nuclear repulsion after PCM non-electrostatic terms =      564.5810305892 Hartrees.
 Leave Link  301 at Wed Dec 23 10:01:36 2020, MaxMem=  4026531840 cpu:         1.5
 (Enter /home/scicons/Gaussian09D/Gaussian09.D01/l302.exe)
 NPDir=0 NMtPBC=     1 NCelOv=     1 NCel=       1 NClECP=     1 NCelD=      1
         NCelK=      1 NCelE2=     1 NClLst=     1 CellRange=     0.0.
 One-electron integrals computed using PRISM.
   1 Symmetry operations used in ECPInt.
 ECPInt:  NShTT=    5565 NPrTT=   17197 LenC2=    5437 LenP2D=   13054.
 LDataN:  DoStor=T MaxTD1= 8 Len=  415
 NBasis=   255 RedAO= T EigKep=  2.95D-03  NBF=   255
 NBsUse=   255 1.00D-06 EigRej= -1.00D+00 NBFU=   255
 Precomputing XC quadrature grid using
 IXCGrd= 4 IRadAn=           0 IRanWt=          -1 IRanGd=           0 AccXCQ= 0.00D+00.
 Defaulting to unpruned grid for atomic number  78.
 Generated NRdTot=       0 NPtTot=           0 NUsed=           0 NTot=          32
 NSgBfM=   284   284   284   284   284 MxSgAt=    14 MxSgA2=    14.
 Leave Link  302 at Wed Dec 23 10:01:36 2020, MaxMem=  4026531840 cpu:         7.4
 (Enter /home/scicons/Gaussian09D/Gaussian09.D01/l303.exe)
 DipDrv:  MaxL=1.
 Leave Link  303 at Wed Dec 23 10:01:37 2020, MaxMem=  4026531840 cpu:         0.6
 (Enter /home/scicons/Gaussian09D/Gaussian09.D01/l401.exe)
 ExpMin= 4.92D-02 ExpMax= 6.95D+04 ExpMxC= 2.37D+03 IAcc=2 IRadAn=         4 AccDes= 0.00D+00
 Harris functional with IExCor=  402 and IRadAn=       4 diagonalized for initial guess.
 HarFok:  IExCor=  402 AccDes= 0.00D+00 IRadAn=         4 IDoV= 1 UseB2=F ITyADJ=14
 ICtDFT=  3500011 ScaDFX=  1.000000  1.000000  1.000000  1.000000
 Defaulting to unpruned grid for atomic number  78.
 Defaulting to unpruned grid for atomic number  78.
 Defaulting to unpruned grid for atomic number  78.
 Defaulting to unpruned grid for atomic number  78.
 Defaulting to unpruned grid for atomic number  78.
 Defaulting to unpruned grid for atomic number  78.
 Defaulting to unpruned grid for atomic number  78.
 Defaulting to unpruned grid for atomic number  78.
 Defaulting to unpruned grid for atomic number  78.
 Defaulting to unpruned grid for atomic number  78.
 Defaulting to unpruned grid for atomic number  78.
 Defaulting to unpruned grid for atomic number  78.
 Defaulting to unpruned grid for atomic number  78.
 Defaulting to unpruned grid for atomic number  78.
 Defaulting to unpruned grid for atomic number  78.
 Defaulting to unpruned grid for atomic number  78.
 Defaulting to unpruned grid for atomic number  78.
 Defaulting to unpruned grid for atomic number  78.
 Defaulting to unpruned grid for atomic number  78.
 Defaulting to unpruned grid for atomic number  78.
 Defaulting to unpruned grid for atomic number  78.
 Defaulting to unpruned grid for atomic number  78.
 Defaulting to unpruned grid for atomic number  78.
 Defaulting to unpruned grid for atomic number  78.
 FoFCou: FMM=F IPFlag=           0 FMFlag=      100000 FMFlg1=           0
         NFxFlg=           0 DoJE=T BraDBF=F KetDBF=T FulRan=T
         wScrn=  0.000000 ICntrl=     500 IOpCl=  0 I1Cent=   200000004 NGrid=           0
         NMat0=    1 NMatS0=      1 NMatT0=    0 NMatD0=    1 NMtDS0=    0 NMtDT0=    0
 Petite list used in FoFCou.
 Harris En= -1229.08190080114    
 JPrj=0 DoOrth=F DoCkMO=F.
 Leave Link  401 at Wed Dec 23 10:01:37 2020, MaxMem=  4026531840 cpu:         7.1
 (Enter /home/scicons/Gaussian09D/Gaussian09.D01/l502.exe)
 Closed shell SCF:
 Using DIIS extrapolation, IDIIS=  1040.
 Integral symmetry usage will be decided dynamically.
 Keep R1 ints in memory in canonical form, NReq=544793834.
 IVT=      272906 IEndB=      272906 NGot=  4026531840 MDV=  3493557815
 LenX=  3493557815 LenY=  3493475578
 Requested convergence on RMS density matrix=1.00D-08 within 128 cycles.
 Requested convergence on MAX density matrix=1.00D-06.
 Requested convergence on             energy=1.00D-06.
 No special actions if energy rises.
 FoFCou: FMM=F IPFlag=           0 FMFlag=           0 FMFlg1=           0
         NFxFlg=           0 DoJE=F BraDBF=F KetDBF=F FulRan=T
         wScrn=  0.000000 ICntrl=     600 IOpCl=  0 I1Cent=           0 NGrid=           0
         NMat0=    1 NMatS0=  32640 NMatT0=    0 NMatD0=    1 NMtDS0=    0 NMtDT0=    0
 Symmetry not used in FoFCou.

 Cycle   1  Pass 1  IDiag  1:
 Defaulting to unpruned grid for atomic number  78.
 Defaulting to unpruned grid for atomic number  78.
 Defaulting to unpruned grid for atomic number  78.
 Defaulting to unpruned grid for atomic number  78.
 Defaulting to unpruned grid for atomic number  78.
 Defaulting to unpruned grid for atomic number  78.
 Defaulting to unpruned grid for atomic number  78.
 Defaulting to unpruned grid for atomic number  78.
 Defaulting to unpruned grid for atomic number  78.
 Defaulting to unpruned grid for atomic number  78.
 Defaulting to unpruned grid for atomic number  78.
 Defaulting to unpruned grid for atomic number  78.
 Defaulting to unpruned grid for atomic number  78.
 Defaulting to unpruned grid for atomic number  78.
 Defaulting to unpruned grid for atomic number  78.
 Defaulting to unpruned grid for atomic number  78.
 Defaulting to unpruned grid for atomic number  78.
 Defaulting to unpruned grid for atomic number  78.
 Defaulting to unpruned grid for atomic number  78.
 Defaulting to unpruned grid for atomic number  78.
 Defaulting to unpruned grid for atomic number  78.
 Defaulting to unpruned grid for atomic number  78.
 Defaulting to unpruned grid for atomic number  78.
 Defaulting to unpruned grid for atomic number  78.
 Inv3:  Mode=1 IEnd=     5573307.
 Iteration    1 A*A^-1 deviation from unit magnitude is 4.88D-15 for   1352.
 Iteration    1 A*A^-1 deviation from orthogonality  is 1.93D-15 for    902    626.
 Iteration    1 A^-1*A deviation from unit magnitude is 4.44D-15 for   1352.
 Iteration    1 A^-1*A deviation from orthogonality  is 1.37D-10 for    989    687.
 Iteration    2 A*A^-1 deviation from unit magnitude is 3.33D-15 for    288.
 Iteration    2 A*A^-1 deviation from orthogonality  is 2.88D-15 for    696      7.
 Iteration    2 A^-1*A deviation from unit magnitude is 8.88D-16 for     14.
 Iteration    2 A^-1*A deviation from orthogonality  is 7.95D-16 for   1341    446.
 E= -1229.14800082899    
 DIIS: error= 3.30D-02 at cycle   1 NSaved=   1.
 NSaved= 1 IEnMin= 1 EnMin= -1229.14800082899     IErMin= 1 ErrMin= 3.30D-02
 ErrMax= 3.30D-02  0.00D+00 EMaxC= 1.00D-01 BMatC= 6.47D-01 BMatP= 6.47D-01
 IDIUse=3 WtCom= 6.70D-01 WtEn= 3.30D-01
 Coeff-Com:  0.100D+01
 Coeff-En:   0.100D+01
 Coeff:      0.100D+01
 Gap=     0.273 Goal=   None    Shift=    0.000
 GapD=    0.273 DampG=1.000 DampE=0.250 DampFc=0.2500 IDamp=-1.
 Damping current iteration by 2.50D-01
 RMSDP=5.33D-03 MaxDP=3.41D-01              OVMax= 4.68D-01

 Cycle   2  Pass 1  IDiag  1:
 E= -1229.30014087365     Delta-E=       -0.152140044658 Rises=F Damp=T
 DIIS: error= 1.63D-02 at cycle   2 NSaved=   2.
 NSaved= 2 IEnMin= 2 EnMin= -1229.30014087365     IErMin= 2 ErrMin= 1.63D-02
 ErrMax= 1.63D-02  0.00D+00 EMaxC= 1.00D-01 BMatC= 1.03D-01 BMatP= 6.47D-01
 IDIUse=3 WtCom= 8.37D-01 WtEn= 1.63D-01
 Coeff-Com: -0.520D+00 0.152D+01
 Coeff-En:   0.000D+00 0.100D+01
 Coeff:     -0.436D+00 0.144D+01
 Gap=     0.138 Goal=   None    Shift=    0.000
 RMSDP=1.17D-03 MaxDP=6.39D-02 DE=-1.52D-01 OVMax= 3.67D-01

 Cycle   3  Pass 1  IDiag  1:
 E= -1229.53589560422     Delta-E=       -0.235754730572 Rises=F Damp=F
 DIIS: error= 4.81D-03 at cycle   3 NSaved=   3.
 NSaved= 3 IEnMin= 3 EnMin= -1229.53589560422     IErMin= 3 ErrMin= 4.81D-03
 ErrMax= 4.81D-03  0.00D+00 EMaxC= 1.00D-01 BMatC= 1.13D-02 BMatP= 1.03D-01
 IDIUse=3 WtCom= 9.52D-01 WtEn= 4.81D-02
 Coeff-Com: -0.193D+00 0.519D+00 0.675D+00
 Coeff-En:   0.000D+00 0.000D+00 0.100D+01
 Coeff:     -0.184D+00 0.494D+00 0.690D+00
 Gap=     0.119 Goal=   None    Shift=    0.000
 RMSDP=7.69D-04 MaxDP=2.24D-02 DE=-2.36D-01 OVMax= 4.06D-02

 Cycle   4  Pass 1  IDiag  1:
 E= -1229.53872429320     Delta-E=       -0.002828688980 Rises=F Damp=F
 DIIS: error= 5.00D-03 at cycle   4 NSaved=   4.
 NSaved= 4 IEnMin= 4 EnMin= -1229.53872429320     IErMin= 3 ErrMin= 4.81D-03
 ErrMax= 5.00D-03  0.00D+00 EMaxC= 1.00D-01 BMatC= 8.06D-03 BMatP= 1.13D-02
 IDIUse=3 WtCom= 9.50D-01 WtEn= 5.00D-02
 Coeff-Com: -0.381D-01 0.810D-01 0.456D+00 0.501D+00
 Coeff-En:   0.000D+00 0.000D+00 0.426D+00 0.574D+00
 Coeff:     -0.362D-01 0.770D-01 0.454D+00 0.505D+00
 Gap=     0.115 Goal=   None    Shift=    0.000
 RMSDP=3.19D-04 MaxDP=8.56D-03 DE=-2.83D-03 OVMax= 2.01D-02

 Cycle   5  Pass 1  IDiag  1:
 E= -1229.54499380808     Delta-E=       -0.006269514879 Rises=F Damp=F
 DIIS: error= 3.10D-04 at cycle   5 NSaved=   5.
 NSaved= 5 IEnMin= 5 EnMin= -1229.54499380808     IErMin= 5 ErrMin= 3.10D-04
 ErrMax= 3.10D-04  0.00D+00 EMaxC= 1.00D-01 BMatC= 2.52D-05 BMatP= 8.06D-03
 IDIUse=3 WtCom= 9.97D-01 WtEn= 3.10D-03
 Coeff-Com: -0.443D-02 0.759D-02 0.934D-01 0.120D+00 0.784D+00
 Coeff-En:   0.000D+00 0.000D+00 0.000D+00 0.000D+00 0.100D+01
 Coeff:     -0.441D-02 0.756D-02 0.931D-01 0.119D+00 0.784D+00
 Gap=     0.116 Goal=   None    Shift=    0.000
 RMSDP=2.89D-05 MaxDP=1.62D-03 DE=-6.27D-03 OVMax= 1.32D-03

 Cycle   6  Pass 1  IDiag  1:
 E= -1229.54500911424     Delta-E=       -0.000015306156 Rises=F Damp=F
 DIIS: error= 1.85D-04 at cycle   6 NSaved=   6.
 NSaved= 6 IEnMin= 6 EnMin= -1229.54500911424     IErMin= 6 ErrMin= 1.85D-04
 ErrMax= 1.85D-04  0.00D+00 EMaxC= 1.00D-01 BMatC= 1.00D-05 BMatP= 2.52D-05
 IDIUse=3 WtCom= 9.98D-01 WtEn= 1.85D-03
 Coeff-Com:  0.236D-03-0.207D-02 0.207D-01 0.315D-01 0.401D+00 0.549D+00
 Coeff-En:   0.000D+00 0.000D+00 0.000D+00 0.000D+00 0.195D+00 0.805D+00
 Coeff:      0.236D-03-0.207D-02 0.207D-01 0.314D-01 0.400D+00 0.549D+00
 Gap=     0.116 Goal=   None    Shift=    0.000
 RMSDP=1.19D-05 MaxDP=5.52D-04 DE=-1.53D-05 OVMax= 6.06D-04

 Cycle   7  Pass 1  IDiag  1:
 E= -1229.54501618896     Delta-E=       -0.000007074725 Rises=F Damp=F
 DIIS: error= 4.68D-05 at cycle   7 NSaved=   7.
 NSaved= 7 IEnMin= 7 EnMin= -1229.54501618896     IErMin= 7 ErrMin= 4.68D-05
 ErrMax= 4.68D-05  0.00D+00 EMaxC= 1.00D-01 BMatC= 6.40D-07 BMatP= 1.00D-05
 IDIUse=1 WtCom= 1.00D+00 WtEn= 0.00D+00
 Coeff-Com:  0.419D-03-0.146D-02 0.466D-02 0.800D-02 0.149D+00 0.263D+00
 Coeff-Com:  0.577D+00
 Coeff:      0.419D-03-0.146D-02 0.466D-02 0.800D-02 0.149D+00 0.263D+00
 Coeff:      0.577D+00
 Gap=     0.116 Goal=   None    Shift=    0.000
 RMSDP=2.98D-06 MaxDP=8.95D-05 DE=-7.07D-06 OVMax= 2.20D-04

 Cycle   8  Pass 1  IDiag  1:
 E= -1229.54501662044     Delta-E=       -0.000000431482 Rises=F Damp=F
 DIIS: error= 1.71D-05 at cycle   8 NSaved=   8.
 NSaved= 8 IEnMin= 8 EnMin= -1229.54501662044     IErMin= 8 ErrMin= 1.71D-05
 ErrMax= 1.71D-05  0.00D+00 EMaxC= 1.00D-01 BMatC= 8.15D-08 BMatP= 6.40D-07
 IDIUse=1 WtCom= 1.00D+00 WtEn= 0.00D+00
 Coeff-Com:  0.199D-03-0.246D-03-0.307D-02-0.420D-02-0.793D-02 0.127D-01
 Coeff-Com:  0.268D+00 0.735D+00
 Coeff:      0.199D-03-0.246D-03-0.307D-02-0.420D-02-0.793D-02 0.127D-01
 Coeff:      0.268D+00 0.735D+00
 Gap=     0.116 Goal=   None    Shift=    0.000
 RMSDP=1.34D-06 MaxDP=4.46D-05 DE=-4.31D-07 OVMax= 7.45D-05

 Cycle   9  Pass 1  IDiag  1:
 E= -1229.54501668143     Delta-E=       -0.000000060984 Rises=F Damp=F
 DIIS: error= 1.87D-06 at cycle   9 NSaved=   9.
 NSaved= 9 IEnMin= 9 EnMin= -1229.54501668143     IErMin= 9 ErrMin= 1.87D-06
 ErrMax= 1.87D-06  0.00D+00 EMaxC= 1.00D-01 BMatC= 1.73D-09 BMatP= 8.15D-08
 IDIUse=1 WtCom= 1.00D+00 WtEn= 0.00D+00
 Coeff-Com:  0.515D-04-0.428D-04-0.112D-02-0.166D-02-0.690D-02-0.285D-02
 Coeff-Com:  0.864D-01 0.279D+00 0.647D+00
 Coeff:      0.515D-04-0.428D-04-0.112D-02-0.166D-02-0.690D-02-0.285D-02
 Coeff:      0.864D-01 0.279D+00 0.647D+00
 Gap=     0.116 Goal=   None    Shift=    0.000
 RMSDP=2.38D-07 MaxDP=1.37D-05 DE=-6.10D-08 OVMax= 1.38D-05

 Cycle  10  Pass 1  IDiag  1:
 E= -1229.54501668302     Delta-E=       -0.000000001591 Rises=F Damp=F
 DIIS: error= 6.67D-07 at cycle  10 NSaved=  10.
 NSaved=10 IEnMin=10 EnMin= -1229.54501668302     IErMin=10 ErrMin= 6.67D-07
 ErrMax= 6.67D-07  0.00D+00 EMaxC= 1.00D-01 BMatC= 1.99D-10 BMatP= 1.73D-09
 IDIUse=1 WtCom= 1.00D+00 WtEn= 0.00D+00
 Coeff-Com: -0.373D-05 0.124D-04-0.136D-03-0.244D-03-0.198D-02-0.251D-02
 Coeff-Com:  0.456D-02 0.250D-01 0.263D+00 0.712D+00
 Coeff:     -0.373D-05 0.124D-04-0.136D-03-0.244D-03-0.198D-02-0.251D-02
 Coeff:      0.456D-02 0.250D-01 0.263D+00 0.712D+00
 Gap=     0.116 Goal=   None    Shift=    0.000
 RMSDP=1.04D-07 MaxDP=3.74D-06 DE=-1.59D-09 OVMax= 6.76D-06

 Cycle  11  Pass 1  IDiag  1:
 E= -1229.54501668322     Delta-E=       -0.000000000204 Rises=F Damp=F
 DIIS: error= 2.20D-07 at cycle  11 NSaved=  11.
 NSaved=11 IEnMin=11 EnMin= -1229.54501668322     IErMin=11 ErrMin= 2.20D-07
 ErrMax= 2.20D-07  0.00D+00 EMaxC= 1.00D-01 BMatC= 3.06D-11 BMatP= 1.99D-10
 IDIUse=1 WtCom= 1.00D+00 WtEn= 0.00D+00
 Coeff-Com: -0.591D-05 0.798D-05 0.575D-04 0.694D-04-0.429D-04-0.697D-03
 Coeff-Com: -0.822D-02-0.245D-01 0.445D-01 0.330D+00 0.659D+00
 Coeff:     -0.591D-05 0.798D-05 0.575D-04 0.694D-04-0.429D-04-0.697D-03
 Coeff:     -0.822D-02-0.245D-01 0.445D-01 0.330D+00 0.659D+00
 Gap=     0.116 Goal=   None    Shift=    0.000
 RMSDP=4.18D-08 MaxDP=1.74D-06 DE=-2.04D-10 OVMax= 3.38D-06

 Cycle  12  Pass 1  IDiag  1:
 E= -1229.54501668328     Delta-E=       -0.000000000061 Rises=F Damp=F
 DIIS: error= 6.51D-08 at cycle  12 NSaved=  12.
 NSaved=12 IEnMin=12 EnMin= -1229.54501668328     IErMin=12 ErrMin= 6.51D-08
 ErrMax= 6.51D-08  0.00D+00 EMaxC= 1.00D-01 BMatC= 2.43D-12 BMatP= 3.06D-11
 IDIUse=1 WtCom= 1.00D+00 WtEn= 0.00D+00
 Coeff-Com:  0.977D-06-0.193D-05 0.301D-04 0.410D-04 0.184D-03 0.595D-04
 Coeff-Com: -0.169D-02-0.690D-02-0.181D-01-0.124D-01 0.153D+00 0.885D+00
 Coeff:      0.977D-06-0.193D-05 0.301D-04 0.410D-04 0.184D-03 0.595D-04
 Coeff:     -0.169D-02-0.690D-02-0.181D-01-0.124D-01 0.153D+00 0.885D+00
 Gap=     0.116 Goal=   None    Shift=    0.000
 RMSDP=1.53D-08 MaxDP=5.51D-07 DE=-6.09D-11 OVMax= 1.38D-06

 Cycle  13  Pass 1  IDiag  1:
 E= -1229.54501668328     Delta-E=        0.000000000004 Rises=F Damp=F
 DIIS: error= 1.96D-08 at cycle  13 NSaved=  13.
 NSaved=13 IEnMin=12 EnMin= -1229.54501668328     IErMin=13 ErrMin= 1.96D-08
 ErrMax= 1.96D-08  0.00D+00 EMaxC= 1.00D-01 BMatC= 1.93D-13 BMatP= 2.43D-12
 IDIUse=1 WtCom= 1.00D+00 WtEn= 0.00D+00
 Coeff-Com:  0.854D-06-0.135D-05 0.582D-05 0.930D-05 0.728D-04 0.658D-04
 Coeff-Com:  0.648D-04-0.599D-03-0.898D-02-0.283D-01 0.607D-02 0.282D+00
 Coeff-Com:  0.749D+00
 Coeff:      0.854D-06-0.135D-05 0.582D-05 0.930D-05 0.728D-04 0.658D-04
 Coeff:      0.648D-04-0.599D-03-0.898D-02-0.283D-01 0.607D-02 0.282D+00
 Coeff:      0.749D+00
 Gap=     0.116 Goal=   None    Shift=    0.000
 RMSDP=4.86D-09 MaxDP=1.91D-07 DE= 3.64D-12 OVMax= 6.27D-07

 Error on total polarization charges =  0.02182
 SCF Done:  E(RB3LYP) =  -1229.54501668     A.U. after   13 cycles
            NFock= 13  Conv=0.49D-08     -V/T= 2.0697
 KE= 1.149457561728D+03 PE=-4.015110712565D+03 EE= 1.071527103564D+03
 SMD-CDS (non-electrostatic) energy       (kcal/mol) =       5.60
 (included in total energy above)
 Leave Link  502 at Wed Dec 23 10:01:58 2020, MaxMem=  4026531840 cpu:       216.8
 (Enter /home/scicons/Gaussian09D/Gaussian09.D01/l801.exe)
 DoSCS=F DFT=T ScalE2(SS,OS)=  1.000000  1.000000
 Range of M.O.s used for correlation:     1   255
 NBasis=   255 NAE=    41 NBE=    41 NFC=     0 NFV=     0
 NROrb=    255 NOA=    41 NOB=    41 NVA=   214 NVB=   214
 Leave Link  801 at Wed Dec 23 10:01:59 2020, MaxMem=  4026531840 cpu:         0.7
 (Enter /home/scicons/Gaussian09D/Gaussian09.D01/l1101.exe)
 Using compressed storage, NAtomX=    14.
 Will process     15 centers per pass.
   1 Symmetry operations used in ECPInt.
 ECPInt:  NShTT=    5565 NPrTT=   17197 LenC2=    5437 LenP2D=   13054.
 LDataN:  DoStor=T MaxTD1= 9 Len=  602
 R6Disp: Adding Grimme-D3(BJ) dispersion energy 1st derivatives to the gradient.
 Leave Link 1101 at Wed Dec 23 10:02:01 2020, MaxMem=  4026531840 cpu:        24.5
 (Enter /home/scicons/Gaussian09D/Gaussian09.D01/l1102.exe)
 Symmetrizing basis deriv contribution to polar:
 IMax=3 JMax=2 DiffMx= 0.00D+00
 Leave Link 1102 at Wed Dec 23 10:02:01 2020, MaxMem=  4026531840 cpu:         0.6
 (Enter /home/scicons/Gaussian09D/Gaussian09.D01/l1110.exe)
 Forming Gx(P) for the SCF density, NAtomX=    14.
 Integral derivatives from FoFJK, PRISM(SPDF).
 Do as many integral derivatives as possible in FoFJK.
 G2DrvN: MDV=    4026531624.
 G2DrvN: will do    15 centers at a time, making    1 passes.
 Calling FoFCou, ICntrl=  3107 FMM=F I1Cent=   0 AccDes= 0.00D+00.
 FoFJK:  IHMeth= 1 ICntrl=    3107 DoSepK=F KAlg= 0 I1Cent=   0 FoldK=F
 IRaf=         0 NMat=   1 IRICut=       1 DoRegI=T DoRafI=F ISym2E= 0.
 FoFCou: FMM=F IPFlag=           0 FMFlag=      100000 FMFlg1=           0
         NFxFlg=           0 DoJE=F BraDBF=F KetDBF=F FulRan=T
         wScrn=  0.000000 ICntrl=    3107 IOpCl=  0 I1Cent=           0 NGrid=           0
         NMat0=    1 NMatS0=      1 NMatT0=    0 NMatD0=    1 NMtDS0=    0 NMtDT0=    0
 Symmetry not used in FoFCou.
 Defaulting to unpruned grid for atomic number  78.
 Defaulting to unpruned grid for atomic number  78.
 Defaulting to unpruned grid for atomic number  78.
 Defaulting to unpruned grid for atomic number  78.
 Defaulting to unpruned grid for atomic number  78.
 Defaulting to unpruned grid for atomic number  78.
 Defaulting to unpruned grid for atomic number  78.
 Defaulting to unpruned grid for atomic number  78.
 Defaulting to unpruned grid for atomic number  78.
 Defaulting to unpruned grid for atomic number  78.
 Defaulting to unpruned grid for atomic number  78.
 Defaulting to unpruned grid for atomic number  78.
 Defaulting to unpruned grid for atomic number  78.
 Defaulting to unpruned grid for atomic number  78.
 Defaulting to unpruned grid for atomic number  78.
 Defaulting to unpruned grid for atomic number  78.
 Defaulting to unpruned grid for atomic number  78.
 Defaulting to unpruned grid for atomic number  78.
 Defaulting to unpruned grid for atomic number  78.
 Defaulting to unpruned grid for atomic number  78.
 Defaulting to unpruned grid for atomic number  78.
 Defaulting to unpruned grid for atomic number  78.
 Defaulting to unpruned grid for atomic number  78.
 Defaulting to unpruned grid for atomic number  78.
 NEqPCM:  Using equilibrium solvation (IEInf=0, Eps=  78.3553, EpsInf=   1.7778)
 G2PCM: DoFxE=T DoFxN=T DoGrad=T DoDP/DQ/DG/TGxP=FFFF NFrqRd=   0 IEInf=0 SqF1=F DoCFld=F IF1Alg=4.
 GePol: Maximum number of non-zero 1st derivatives   =     364
 End of G2Drv F.D. properties file   721 does not exist.
 End of G2Drv F.D. properties file   722 does not exist.
 End of G2Drv F.D. properties file   788 does not exist.
 Leave Link 1110 at Wed Dec 23 10:02:16 2020, MaxMem=  4026531840 cpu:       333.0
 (Enter /home/scicons/Gaussian09D/Gaussian09.D01/l1002.exe)
 Minotr:  Closed shell wavefunction.
          IDoAtm=11111111111111
 NEqPCM:  Using equilibrium solvation (IEInf=0, Eps=  78.3553, EpsInf=   1.7778)
          Direct CPHF calculation.
          Differentiating once with respect to electric field.
                with respect to dipole field.
          Differentiating once with respect to nuclear coordinates.
          Requested convergence is 1.0D-08 RMS, and 1.0D-07 maximum.
          Secondary convergence is 1.0D-12 RMS, and 1.0D-12 maximum.
          NewPWx=T KeepS1=F KeepF1=F KeepIn=T MapXYZ=F SortEE=F KeepMc=T.
          MDV=    4026531441 using IRadAn=       2.
 Defaulting to unpruned grid for atomic number  78.
 Generate precomputed XC quadrature information.
 Keep R1 ints in memory in canonical form, NReq=544526104.
 FoFCou: FMM=F IPFlag=           0 FMFlag=           0 FMFlg1=           0
         NFxFlg=           0 DoJE=F BraDBF=F KetDBF=F FulRan=T
         wScrn=  0.000000 ICntrl=     600 IOpCl=  0 I1Cent=           0 NGrid=           0
         NMat0=    1 NMatS0=  32640 NMatT0=    0 NMatD0=    1 NMtDS0=    0 NMtDT0=    0
 Symmetry not used in FoFCou.
          Solving linear equations simultaneously, MaxMat=       0.
 Defaulting to unpruned grid for atomic number  78.
 Defaulting to unpruned grid for atomic number  78.
 Defaulting to unpruned grid for atomic number  78.
 Defaulting to unpruned grid for atomic number  78.
 Defaulting to unpruned grid for atomic number  78.
 Defaulting to unpruned grid for atomic number  78.
 Defaulting to unpruned grid for atomic number  78.
 Defaulting to unpruned grid for atomic number  78.
 Defaulting to unpruned grid for atomic number  78.
 Defaulting to unpruned grid for atomic number  78.
 Defaulting to unpruned grid for atomic number  78.
 Defaulting to unpruned grid for atomic number  78.
 Defaulting to unpruned grid for atomic number  78.
 Defaulting to unpruned grid for atomic number  78.
 Defaulting to unpruned grid for atomic number  78.
 Defaulting to unpruned grid for atomic number  78.
 Defaulting to unpruned grid for atomic number  78.
 Defaulting to unpruned grid for atomic number  78.
 Defaulting to unpruned grid for atomic number  78.
 Defaulting to unpruned grid for atomic number  78.
 Defaulting to unpruned grid for atomic number  78.
 Defaulting to unpruned grid for atomic number  78.
 Defaulting to unpruned grid for atomic number  78.
 Defaulting to unpruned grid for atomic number  78.
          There are    45 degrees of freedom in the 1st order CPHF.  IDoFFX=6 NUNeed=     3.
     42 vectors produced by pass  0 Test12= 1.95D-14 2.22D-09 XBig12= 1.08D+02 6.40D+00.
 AX will form    42 AO Fock derivatives at one time.
     42 vectors produced by pass  1 Test12= 1.95D-14 2.22D-09 XBig12= 1.85D+01 9.10D-01.
     42 vectors produced by pass  2 Test12= 1.95D-14 2.22D-09 XBig12= 7.32D-01 1.60D-01.
     42 vectors produced by pass  3 Test12= 1.95D-14 2.22D-09 XBig12= 1.81D-02 1.89D-02.
     42 vectors produced by pass  4 Test12= 1.95D-14 2.22D-09 XBig12= 8.41D-05 1.33D-03.
     41 vectors produced by pass  5 Test12= 1.95D-14 2.22D-09 XBig12= 2.74D-07 6.92D-05.
     14 vectors produced by pass  6 Test12= 1.95D-14 2.22D-09 XBig12= 4.33D-10 2.84D-06.
      3 vectors produced by pass  7 Test12= 1.95D-14 2.22D-09 XBig12= 6.52D-13 1.44D-07.
      1 vectors produced by pass  8 Test12= 1.95D-14 2.22D-09 XBig12= 1.16D-15 4.61D-09.
 InvSVY:  IOpt=1 It=  1 EMax= 5.33D-15
 Solved reduced A of dimension   269 with    45 vectors.
 FullF1:  Do perturbations    1 to     3.
 Isotropic polarizability for W=    0.000000      121.47 Bohr**3.
 End of Minotr F.D. properties file   721 does not exist.
 End of Minotr F.D. properties file   722 does not exist.
 End of Minotr F.D. properties file   788 does not exist.
 Leave Link 1002 at Wed Dec 23 10:02:39 2020, MaxMem=  4026531840 cpu:       531.3
 (Enter /home/scicons/Gaussian09D/Gaussian09.D01/l601.exe)
 Copying SCF densities to generalized density rwf, IOpCl= 0 IROHF=0.

 **********************************************************************

            Population analysis using the SCF density.

 **********************************************************************

 Orbital symmetries:
       Occupied  (A) (A) (A) (A) (A) (A) (A) (A) (A) (A) (A) (A)
                 (A) (A) (A) (A) (A) (A) (A) (A) (A) (A) (A) (A)
                 (A) (A) (A) (A) (A) (A) (A) (A) (A) (A) (A) (A)
                 (A) (A) (A) (A) (A)
       Virtual   (A) (A) (A) (A) (A) (A) (A) (A) (A) (A) (A) (A)
                 (A) (A) (A) (A) (A) (A) (A) (A) (A) (A) (A) (A)
                 (A) (A) (A) (A) (A) (A) (A) (A) (A) (A) (A) (A)
                 (A) (A) (A) (A) (A) (A) (A) (A) (A) (A) (A) (A)
                 (A) (A) (A) (A) (A) (A) (A) (A) (A) (A) (A) (A)
                 (A) (A) (A) (A) (A) (A) (A) (A) (A) (A) (A) (A)
                 (A) (A) (A) (A) (A) (A) (A) (A) (A) (A) (A) (A)
                 (A) (A) (A) (A) (A) (A) (A) (A) (A) (A) (A) (A)
                 (A) (A) (A) (A) (A) (A) (A) (A) (A) (A) (A) (A)
                 (A) (A) (A) (A) (A) (A) (A) (A) (A) (A) (A) (A)
                 (A) (A) (A) (A) (A) (A) (A) (A) (A) (A) (A) (A)
                 (A) (A) (A) (A) (A) (A) (A) (A) (A) (A) (A) (A)
                 (A) (A) (A) (A) (A) (A) (A) (A) (A) (A) (A) (A)
                 (A) (A) (A) (A) (A) (A) (A) (A) (A) (A) (A) (A)
                 (A) (A) (A) (A) (A) (A) (A) (A) (A) (A) (A) (A)
                 (A) (A) (A) (A) (A) (A) (A) (A) (A) (A) (A) (A)
                 (A) (A) (A) (A) (A) (A) (A) (A) (A) (A) (A) (A)
                 (A) (A) (A) (A) (A) (A) (A) (A) (A) (A)
 The electronic state is 1-A.
 Alpha  occ. eigenvalues -- -101.46003-101.45622 -19.15521 -14.32550 -14.32474
 Alpha  occ. eigenvalues --   -9.39292  -9.38911  -7.15181  -7.14809  -7.14720
 Alpha  occ. eigenvalues --   -7.14707  -7.14333  -7.14324  -3.89645  -2.16379
 Alpha  occ. eigenvalues --   -2.13209  -2.12799  -1.04992  -0.89385  -0.88891
 Alpha  occ. eigenvalues --   -0.76135  -0.74912  -0.57219  -0.50755  -0.50722
 Alpha  occ. eigenvalues --   -0.50170  -0.49768  -0.47362  -0.40911  -0.39566
 Alpha  occ. eigenvalues --   -0.38598  -0.38170  -0.31312  -0.30459  -0.29697
 Alpha  occ. eigenvalues --   -0.28461  -0.28403  -0.21427  -0.20954  -0.15815
 Alpha  occ. eigenvalues --   -0.14662
 Alpha virt. eigenvalues --   -0.03060   0.01485   0.05099   0.05657   0.09401
 Alpha virt. eigenvalues --    0.10212   0.10753   0.12488   0.13224   0.16065
 Alpha virt. eigenvalues --    0.17568   0.18670   0.20579   0.21360   0.25577
 Alpha virt. eigenvalues --    0.29526   0.29961   0.30174   0.31225   0.32444
 Alpha virt. eigenvalues --    0.33746   0.34557   0.35539   0.36637   0.36855
 Alpha virt. eigenvalues --    0.37018   0.38870   0.39842   0.42127   0.43139
 Alpha virt. eigenvalues --    0.43865   0.44963   0.46189   0.46807   0.48209
 Alpha virt. eigenvalues --    0.49103   0.49567   0.51224   0.52404   0.52975
 Alpha virt. eigenvalues --    0.53462   0.53800   0.54942   0.55208   0.58161
 Alpha virt. eigenvalues --    0.58954   0.59886   0.64897   0.66695   0.70379
 Alpha virt. eigenvalues --    0.72438   0.73725   0.76174   0.76933   0.79848
 Alpha virt. eigenvalues --    0.83732   0.92018   0.97169   0.98328   1.01557
 Alpha virt. eigenvalues --    1.02889   1.12405   1.13878   1.18176   1.22639
 Alpha virt. eigenvalues --    1.24428   1.25057   1.25741   1.26595   1.30217
 Alpha virt. eigenvalues --    1.33889   1.37228   1.41614   1.42518   1.45015
 Alpha virt. eigenvalues --    1.47707   1.48160   1.50532   1.52376   1.55439
 Alpha virt. eigenvalues --    1.57336   1.58834   1.59140   1.59423   1.63050
 Alpha virt. eigenvalues --    1.65410   1.70791   1.73726   1.76003   1.76730
 Alpha virt. eigenvalues --    1.80037   1.80440   1.81435   1.82039   1.83104
 Alpha virt. eigenvalues --    1.83306   1.83530   1.83884   1.87934   1.89133
 Alpha virt. eigenvalues --    1.91843   1.93144   1.94582   1.95003   2.00828
 Alpha virt. eigenvalues --    2.02765   2.10573   2.11491   2.12328   2.12929
 Alpha virt. eigenvalues --    2.13327   2.13970   2.14515   2.15140   2.15706
 Alpha virt. eigenvalues --    2.16187   2.17287   2.17767   2.19122   2.20879
 Alpha virt. eigenvalues --    2.23784   2.24194   2.25875   2.26942   2.27986
 Alpha virt. eigenvalues --    2.29700   2.30308   2.30996   2.31398   2.33566
 Alpha virt. eigenvalues --    2.34436   2.40327   2.42199   2.44218   2.48639
 Alpha virt. eigenvalues --    2.50854   2.51391   2.52613   2.54652   2.56841
 Alpha virt. eigenvalues --    2.58243   2.60324   2.61555   2.63438   2.67173
 Alpha virt. eigenvalues --    2.68971   2.70982   2.74039   2.85200   2.93749
 Alpha virt. eigenvalues --    2.97634   2.98473   3.07225   3.19278   3.19342
 Alpha virt. eigenvalues --    3.21379   3.24711   3.27377   3.34670   3.41140
 Alpha virt. eigenvalues --    3.68204   3.98297   4.15597   4.23615   4.32857
 Alpha virt. eigenvalues --    4.33237   4.35888   4.36576   4.43635   4.43672
 Alpha virt. eigenvalues --    4.65221   4.66502   4.69730   4.73369   4.87797
 Alpha virt. eigenvalues --    4.88114   4.89152   4.91946   5.04985   5.08833
 Alpha virt. eigenvalues --    5.12867   5.23265   5.36634   5.37696   5.38291
 Alpha virt. eigenvalues --    5.38582   5.39125   5.40959   5.49268   5.82919
 Alpha virt. eigenvalues --    5.83452   5.97912   6.25290   6.43038   6.47153
 Alpha virt. eigenvalues --    6.65519   6.95525   6.98716  10.75507  10.75892
 Alpha virt. eigenvalues --   10.77700  10.78603  10.88152  11.03535  24.81146
 Alpha virt. eigenvalues --   25.23388  31.50813  31.57960  31.68297  32.01423
 Alpha virt. eigenvalues --   32.35103  43.38905  52.01457 282.34261
          Condensed to atoms (all electrons):
               1          2          3          4          5          6
     1  Pt  17.754556  -0.034855  -0.047181  -0.044876   0.125930  -0.107901
     2  N   -0.034855   6.760555   0.353898   0.368278  -0.023207  -0.034117
     3  H   -0.047181   0.353898   0.444159  -0.029301   0.006950  -0.003877
     4  H   -0.044876   0.368278  -0.029301   0.431740   0.005248   0.002018
     5  Cl   0.125930  -0.023207   0.006950   0.005248  17.459699  -0.027548
     6  O   -0.107901  -0.034117  -0.003877   0.002018  -0.027548   8.217548
     7  H   -0.048862  -0.005771   0.004562  -0.000510   0.000850   0.307408
     8  H   -0.030048   0.004113  -0.000294  -0.000309   0.016676   0.293471
     9  N   -0.032558  -0.056136   0.004672  -0.004396  -0.039777  -0.032141
    10  H   -0.041530   0.004129  -0.000062  -0.000307  -0.000136  -0.003262
    11  H   -0.045456  -0.003857  -0.000385   0.002633  -0.000423   0.002389
    12  Cl   0.146019  -0.038813  -0.000065  -0.000947  -0.008851  -0.023081
    13  H   -0.019255   0.326470  -0.014891  -0.019002   0.001032   0.001793
    14  H   -0.021415   0.003599  -0.000514   0.000401   0.020454   0.001370
               7          8          9         10         11         12
     1  Pt  -0.048862  -0.030048  -0.032558  -0.041530  -0.045456   0.146019
     2  N   -0.005771   0.004113  -0.056136   0.004129  -0.003857  -0.038813
     3  H    0.004562  -0.000294   0.004672  -0.000062  -0.000385  -0.000065
     4  H   -0.000510  -0.000309  -0.004396  -0.000307   0.002633  -0.000947
     5  Cl   0.000850   0.016676  -0.039777  -0.000136  -0.000423  -0.008851
     6  O    0.307408   0.293471  -0.032141  -0.003262   0.002389  -0.023081
     7  H    0.354993  -0.018587   0.004702  -0.000329  -0.000126  -0.000066
     8  H   -0.018587   0.352449  -0.000053   0.001843  -0.000211  -0.000357
     9  N    0.004702  -0.000053   6.750419   0.355904   0.363327  -0.027296
    10  H   -0.000329   0.001843   0.355904   0.436633  -0.026691   0.005796
    11  H   -0.000126  -0.000211   0.363327  -0.026691   0.432068   0.004565
    12  Cl  -0.000066  -0.000357  -0.027296   0.005796   0.004565  17.455930
    13  H    0.000693  -0.000096   0.003693  -0.000430   0.000221   0.021067
    14  H   -0.000312  -0.000226   0.329596  -0.015917  -0.017424   0.000757
              13         14
     1  Pt  -0.019255  -0.021415
     2  N    0.326470   0.003599
     3  H   -0.014891  -0.000514
     4  H   -0.019002   0.000401
     5  Cl   0.001032   0.020454
     6  O    0.001793   0.001370
     7  H    0.000693  -0.000312
     8  H   -0.000096  -0.000226
     9  N    0.003693   0.329596
    10  H   -0.000430  -0.015917
    11  H    0.000221  -0.017424
    12  Cl   0.021067   0.000757
    13  H    0.432834  -0.000051
    14  H   -0.000051   0.431536
 Mulliken charges:
               1
     1  Pt   0.447433
     2  N   -0.624287
     3  H    0.282328
     4  H    0.289331
     5  Cl  -0.536897
     6  O   -0.594071
     7  H    0.401354
     8  H    0.381628
     9  N   -0.619956
    10  H    0.284358
    11  H    0.289370
    12  Cl  -0.534659
    13  H    0.265922
    14  H    0.268145
 Sum of Mulliken charges =   0.00000
 Mulliken charges with hydrogens summed into heavy atoms:
               1
     1  Pt   0.447433
     2  N    0.213294
     5  Cl  -0.536897
     6  O    0.188911
     9  N    0.221918
    12  Cl  -0.534659
 APT charges:
               1
     1  Pt   1.194038
     2  N   -0.506221
     3  H    0.203537
     4  H    0.221856
     5  Cl  -0.726967
     6  O   -0.783422
     7  H    0.359219
     8  H    0.368962
     9  N   -0.504341
    10  H    0.210291
    11  H    0.220246
    12  Cl  -0.697694
    13  H    0.220279
    14  H    0.220217
 Sum of APT charges =   0.00000
 APT charges with hydrogens summed into heavy atoms:
               1
     1  Pt   1.194038
     2  N    0.139451
     5  Cl  -0.726967
     6  O   -0.055240
     9  N    0.146412
    12  Cl  -0.697694
 Electronic spatial extent (au):  <R**2>=           1265.9475
 Charge=              0.0000 electrons
 Dipole moment (field-independent basis, Debye):
    X=             -1.6466    Y=             -0.7099    Z=             -1.1737  Tot=              2.1431
 Quadrupole moment (field-independent basis, Debye-Ang):
   XX=            -92.3595   YY=            -52.6720   ZZ=            -57.8731
   XY=              0.5338   XZ=             -4.3046   YZ=             -1.2713
 Traceless Quadrupole moment (field-independent basis, Debye-Ang):
   XX=            -24.7246   YY=             14.9629   ZZ=              9.7618
   XY=              0.5338   XZ=             -4.3046   YZ=             -1.2713
 Octapole moment (field-independent basis, Debye-Ang**2):
  XXX=             -2.3535  YYY=              1.4370  ZZZ=              0.6888  XYY=             -0.3686
  XXY=              0.3904  XXZ=              0.2418  XZZ=             -9.2779  YZZ=             -9.1086
  YYZ=             -0.1726  XYZ=              1.5142
 Hexadecapole moment (field-independent basis, Debye-Ang**3):
 XXXX=          -1071.7282 YYYY=           -277.5361 ZZZZ=           -274.1965 XXXY=             -2.4991
 XXXZ=             -7.6905 YYYX=              3.8879 YYYZ=            -10.5564 ZZZX=            -24.8882
 ZZZY=            -10.0254 XXYY=           -211.6537 XXZZ=           -209.2438 YYZZ=            -85.2535
 XXYZ=              1.0566 YYXZ=             -0.6572 ZZXY=              3.5638
 N-N= 5.645810305892D+02 E-N=-4.015110712878D+03  KE= 1.149457561728D+03
  Exact polarizability: 143.764  -1.136 113.881  -1.248   2.710 106.770
 Approx polarizability: 167.572  -1.248 120.611  -0.385   2.287 114.686
 No NMR shielding tensors so no spin-rotation constants.
 Leave Link  601 at Wed Dec 23 10:02:40 2020, MaxMem=  4026531840 cpu:         3.5
 (Enter /home/scicons/Gaussian09D/Gaussian09.D01/l701.exe)
 Compute integral second derivatives.
 ... and contract with generalized density number  0.
 R6Disp: Adding Grimme-D3(BJ) dispersion energy 2nd derivatives to the Hessian.
   1 Symmetry operations used in ECPInt.
 ECPInt:  NShTT=    5565 NPrTT=   17197 LenC2=    5437 LenP2D=   13054.
 LDataN:  DoStor=T MaxTD1=10 Len=  848
 D2PCM: PCM CHGder 2nd derivatives, FixD1E=F FixD2E=F DoIter=F DoCFld=F I1PDM=0
 GePol: Maximum number of non-zero 2nd derivatives   =     364
 Leave Link  701 at Wed Dec 23 10:02:46 2020, MaxMem=  4026531840 cpu:       136.2
 (Enter /home/scicons/Gaussian09D/Gaussian09.D01/l702.exe)
 L702 exits ... SP integral derivatives will be done elsewhere.
 Leave Link  702 at Wed Dec 23 10:02:47 2020, MaxMem=  4026531840 cpu:         0.7
 (Enter /home/scicons/Gaussian09D/Gaussian09.D01/l703.exe)
 Compute integral second derivatives, UseDBF=F ICtDFT=           0.
 Integral derivatives from FoFJK, PRISM(SPDF).
 Calling FoFJK, ICntrl=    100127 FMM=F ISym2X=0 I1Cent= 0 IOpClX= 0 NMat=1 NMatS=1 NMatT=0.
 FoFJK:  IHMeth= 1 ICntrl=  100127 DoSepK=F KAlg= 0 I1Cent=   0 FoldK=F
 IRaf=         0 NMat=   1 IRICut=       1 DoRegI=T DoRafI=F ISym2E= 0.
 FoFCou: FMM=F IPFlag=           0 FMFlag=      100000 FMFlg1=         800
         NFxFlg=           0 DoJE=F BraDBF=F KetDBF=F FulRan=T
         wScrn=  0.000000 ICntrl=  100127 IOpCl=  0 I1Cent=           0 NGrid=           0
         NMat0=    1 NMatS0=      1 NMatT0=    0 NMatD0=    1 NMtDS0=    0 NMtDT0=    0
 Symmetry not used in FoFCou.
 Defaulting to unpruned grid for atomic number  78.
 Defaulting to unpruned grid for atomic number  78.
 Defaulting to unpruned grid for atomic number  78.
 Defaulting to unpruned grid for atomic number  78.
 Defaulting to unpruned grid for atomic number  78.
 Defaulting to unpruned grid for atomic number  78.
 Defaulting to unpruned grid for atomic number  78.
 Defaulting to unpruned grid for atomic number  78.
 Defaulting to unpruned grid for atomic number  78.
 Defaulting to unpruned grid for atomic number  78.
 Defaulting to unpruned grid for atomic number  78.
 Defaulting to unpruned grid for atomic number  78.
 Defaulting to unpruned grid for atomic number  78.
 Defaulting to unpruned grid for atomic number  78.
 Defaulting to unpruned grid for atomic number  78.
 Defaulting to unpruned grid for atomic number  78.
 Defaulting to unpruned grid for atomic number  78.
 Defaulting to unpruned grid for atomic number  78.
 Defaulting to unpruned grid for atomic number  78.
 Defaulting to unpruned grid for atomic number  78.
 Defaulting to unpruned grid for atomic number  78.
 Defaulting to unpruned grid for atomic number  78.
 Defaulting to unpruned grid for atomic number  78.
 Defaulting to unpruned grid for atomic number  78.
 Leave Link  703 at Wed Dec 23 10:03:09 2020, MaxMem=  4026531840 cpu:       523.9
 (Enter /home/scicons/Gaussian09D/Gaussian09.D01/l716.exe)
 Dipole        =-6.47834893D-01-2.79311550D-01-4.61765380D-01
 Polarizability= 1.43763554D+02-1.13622441D+00 1.13881488D+02
                -1.24829103D+00 2.70990592D+00 1.06769927D+02
 ***** Axes restored to original set *****
 -------------------------------------------------------------------
 Center     Atomic                   Forces (Hartrees/Bohr)
 Number     Number              X              Y              Z
 -------------------------------------------------------------------
      1       78          -0.055130671   -0.004387247    0.001998618
      2        7          -0.025646564    0.056169291   -0.001309732
      3        1           0.000443998    0.014558171   -0.005602696
      4        1          -0.011385962    0.004538011   -0.004609082
      5       17           0.000401148    0.000057088   -0.023186687
      6        8           0.115956887   -0.001586402    0.008599665
      7        1           0.011120432    0.001324346   -0.005537404
      8        1           0.010464124    0.003029647   -0.006202323
      9        7          -0.025536522   -0.054672319    0.002170907
     10        1           0.000584260   -0.014407813    0.005123030
     11        1          -0.011125762   -0.004622161    0.004858264
     12       17          -0.000771609   -0.000374193    0.023572401
     13        1          -0.004649182    0.009133174    0.011007671
     14        1          -0.004724576   -0.008759594   -0.010882631
 -------------------------------------------------------------------
 Cartesian Forces:  Max     0.115956887 RMS     0.025220201
 FormGI is forming the generalized inverse of G from B-inverse, IUseBI=4.
 Leave Link  716 at Wed Dec 23 10:03:09 2020, MaxMem=  4026531840 cpu:         0.7
 (Enter /home/scicons/Gaussian09D/Gaussian09.D01/l103.exe)

 GradGradGradGradGradGradGradGradGradGradGradGradGradGradGradGradGradGrad
 Berny optimization.
 Red2BG is reusing G-inverse.
 Internal  Forces:  Max     0.137538910 RMS     0.023568756
 Search for a saddle point.
 Step number   1 out of a maximum of   81
 All quantities printed in internal units (Hartrees-Bohrs-Radians)
 Swapping is turned off.
 Second derivative matrix not updated -- analytic derivatives used.
 ITU=  0
     Eigenvalues ---   -0.12979  -0.09915  -0.00003   0.00013   0.00031
     Eigenvalues ---    0.01581   0.02300   0.03085   0.03163   0.03279
     Eigenvalues ---    0.03456   0.04796   0.04910   0.05725   0.05939
     Eigenvalues ---    0.06303   0.08068   0.08195   0.08240   0.08317
     Eigenvalues ---    0.08404   0.08677   0.08752   0.13127   0.17821
     Eigenvalues ---    0.21505   0.26007   0.34024   0.48142   0.48227
     Eigenvalues ---    0.48377   0.48415   0.48821   0.48923   0.52871
     Eigenvalues ---    0.53203
 Eigenvectors required to have negative eigenvalues:
                          A3        A7        A2        R3        R1
   1                   -0.77872   0.41953   0.35919  -0.20420   0.13460
                          R4        A20       A11       A19       A10
   1                    0.11023   0.05896   0.05399  -0.05218  -0.04746
 Eigenvalue     2 is  -9.92D-02 should be greater than     0.000000 Eigenvector:
                          A2        A7        R4        R1        A16
   1                    0.68366  -0.64554   0.22492  -0.21011  -0.08656
                          A17       A3        A20       A11       A25
   1                    0.06045  -0.03812  -0.03549   0.03509  -0.02620
 Eigenvalue     3 is  -2.70D-05 should be greater than     0.000000 Eigenvector:
                          D7        D1        D4        D10       D9
   1                   -0.29593  -0.29503  -0.28941  -0.28913  -0.28911
                          D3        D6        D8        D12       D2
   1                   -0.28821  -0.28260  -0.28254  -0.28231  -0.28163
 RFO step:  Lambda0=3.517196984D-03 Lambda=-9.93361471D-02.
 Linear search not attempted -- option 19 set.
 Maximum step size (   0.300) exceeded in Quadratic search.
    -- Step size scaled by   0.336
 Iteration  1 RMS(Cart)=  0.09830875 RMS(Int)=  0.00344267
 Iteration  2 RMS(Cart)=  0.00655396 RMS(Int)=  0.00012402
 Iteration  3 RMS(Cart)=  0.00002605 RMS(Int)=  0.00012356
 Iteration  4 RMS(Cart)=  0.00000000 RMS(Int)=  0.00012356
 ITry= 1 IFail=0 DXMaxC= 3.38D-01 DCOld= 1.00D+10 DXMaxT= 3.00D-01 DXLimC= 3.00D+00 Rises=F
 Variable       Old X    -DE/DX   Delta X   Delta X   Delta X     New X
                                 (Linear)    (Quad)   (Total)
    R1        3.76055   0.09371   0.00000   0.13702   0.13702   3.89757
    R2        4.30858   0.02319   0.00000   0.02400   0.02400   4.33258
    R3        3.68497   0.13754   0.00000   0.08650   0.08650   3.77147
    R4        3.76056   0.09182   0.00000   0.02352   0.02352   3.78407
    R5        4.30858   0.02357   0.00000   0.02652   0.02652   4.33510
    R6        1.88973   0.01307   0.00000   0.00753   0.00753   1.89726
    R7        1.88973   0.01155   0.00000   0.00498   0.00498   1.89470
    R8        1.88973   0.01381   0.00000   0.00700   0.00700   1.89673
    R9        1.81414   0.00486   0.00000   0.00659   0.00659   1.82073
   R10        1.81414   0.00722   0.00000   0.00284   0.00284   1.81698
   R11        1.88973   0.01277   0.00000   0.00577   0.00577   1.89549
   R12        1.88973   0.01146   0.00000   0.00912   0.00912   1.89884
   R13        1.88973   0.01357   0.00000   0.00767   0.00767   1.89740
    A1        1.57080   0.00009   0.00000   0.00463   0.00460   1.57539
    A2        2.09440  -0.00771   0.00000  -0.15207  -0.15207   1.94233
    A3        2.09440   0.01306   0.00000  -0.03545  -0.03545   2.05895
    A4        1.57080  -0.00002   0.00000   0.00225   0.00227   1.57307
    A5        1.57080  -0.00057   0.00000  -0.00255  -0.00206   1.56874
    A6        1.57080   0.00044   0.00000  -0.00119  -0.00098   1.56981
    A7        2.09440  -0.00534   0.00000   0.18752   0.18752   2.28191
    A8        1.57080   0.00077   0.00000   0.00224   0.00285   1.57365
    A9        1.57080  -0.00071   0.00000  -0.00538  -0.00536   1.56544
   A10        1.91063   0.00909   0.00000   0.01128   0.01126   1.92189
   A11        1.91063   0.00523   0.00000  -0.00255  -0.00254   1.90809
   A12        1.91063   0.00515   0.00000   0.00603   0.00601   1.91664
   A13        1.91063  -0.00722   0.00000  -0.00603  -0.00602   1.90461
   A14        1.91063  -0.00678   0.00000  -0.00640  -0.00645   1.90418
   A15        1.91063  -0.00547   0.00000  -0.00234  -0.00233   1.90830
   A16        1.91063   0.01261   0.00000   0.03023   0.03027   1.94091
   A17        1.91063   0.00981   0.00000  -0.01126  -0.01121   1.89942
   A18        1.91063  -0.01135   0.00000  -0.01395  -0.01386   1.89678
   A19        1.91063   0.00898   0.00000   0.00109   0.00107   1.91171
   A20        1.91063   0.00527   0.00000   0.01641   0.01639   1.92702
   A21        1.91063   0.00489   0.00000   0.00009   0.00008   1.91071
   A22        1.91063  -0.00715   0.00000  -0.00748  -0.00751   1.90312
   A23        1.91063  -0.00667   0.00000  -0.00293  -0.00293   1.90771
   A24        1.91063  -0.00532   0.00000  -0.00718  -0.00721   1.90343
   A25        3.14159   0.00007   0.00000   0.00688   0.00687   3.14846
   A26        3.14159  -0.00027   0.00000  -0.00361  -0.00353   3.13807
    D1       -0.99776   0.00038   0.00000   0.00085   0.00093  -0.99683
    D2        1.09664   0.00030   0.00000  -0.00119  -0.00112   1.09551
    D3       -3.09215  -0.00004   0.00000  -0.00192  -0.00187  -3.09402
    D4        0.57304  -0.00023   0.00000   0.00058   0.00051   0.57354
    D5        2.66743  -0.00030   0.00000  -0.00146  -0.00154   2.66589
    D6       -1.52136  -0.00064   0.00000  -0.00219  -0.00228  -1.52364
    D7       -2.56856  -0.00019   0.00000  -0.00045  -0.00040  -2.56896
    D8       -0.47416  -0.00026   0.00000  -0.00249  -0.00245  -0.47662
    D9        1.62023  -0.00060   0.00000  -0.00322  -0.00320   1.61704
   D10        2.14383   0.00065   0.00000   0.00446   0.00445   2.14829
   D11       -2.04496   0.00057   0.00000   0.00242   0.00240  -2.04256
   D12        0.04944   0.00023   0.00000   0.00169   0.00166   0.05110
   D13        0.01562   0.00010   0.00000  -0.00239  -0.00257   0.01305
   D14       -2.07878   0.00028   0.00000   0.00308   0.00295  -2.07583
   D15        1.58641  -0.00012   0.00000   0.00149   0.00157   1.58798
   D16       -0.50798   0.00005   0.00000   0.00696   0.00708  -0.50090
   D17       -3.12598   0.00006   0.00000  -0.00136  -0.00150  -3.12748
   D18        1.06281   0.00023   0.00000   0.00411   0.00401   1.06682
   D19       -1.55518  -0.00032   0.00000  -0.00628  -0.00612  -1.56130
   D20        2.63361  -0.00014   0.00000  -0.00080  -0.00060   2.63301
   D21       -2.60649   0.00031   0.00000   0.00116   0.00112  -2.60537
   D22       -0.51210   0.00027   0.00000   0.00272   0.00269  -0.50941
   D23        1.58230  -0.00002   0.00000   0.00403   0.00400   1.58630
   D24        2.10590  -0.00006   0.00000  -0.00350  -0.00356   2.10233
   D25       -2.08290  -0.00009   0.00000  -0.00194  -0.00199  -2.08489
   D26        0.01150  -0.00038   0.00000  -0.00064  -0.00068   0.01082
   D27        0.53510   0.00035   0.00000   0.00013   0.00000   0.53510
   D28        2.62949   0.00031   0.00000   0.00169   0.00157   2.63106
   D29       -1.55930   0.00002   0.00000   0.00300   0.00288  -1.55641
   D30       -1.03570  -0.00013   0.00000   0.00065   0.00085  -1.03484
   D31        1.05870  -0.00016   0.00000   0.00221   0.00242   1.06112
   D32       -3.13009  -0.00046   0.00000   0.00352   0.00373  -3.12636
         Item               Value     Threshold  Converged?
 Maximum Force            0.137539     0.000450     NO 
 RMS     Force            0.023569     0.000300     NO 
 Maximum Displacement     0.338236     0.001800     NO 
 RMS     Displacement     0.100037     0.001200     NO 
 Predicted change in Energy=-2.871108D-02
 Lowest energy point so far.  Saving SCF results.
 GradGradGradGradGradGradGradGradGradGradGradGradGradGradGradGradGradGrad

 Leave Link  103 at Wed Dec 23 10:03:09 2020, MaxMem=  4026531840 cpu:         0.7
 (Enter /home/scicons/Gaussian09D/Gaussian09.D01/l202.exe)
                          Input orientation:                          
 ---------------------------------------------------------------------
 Center     Atomic      Atomic             Coordinates (Angstroms)
 Number     Number       Type             X           Y           Z
 ---------------------------------------------------------------------
      1         78           0       -0.488847    0.168959    0.000303
      2          7           0       -1.465448    1.985598   -0.002638
      3          1           0       -0.932612    2.663238   -0.517303
      4          1           0       -2.364358    1.878372   -0.433610
      5         17           0       -0.488175    0.153641   -2.292347
      6          8           0        1.492155    0.411299   -0.004846
      7          1           0        1.729046    1.345171    0.003699
      8          1           0        1.851849    0.009669   -0.800962
      9          7           0       -1.601896   -1.495621    0.009134
     10          1           0       -1.111296   -2.224538    0.492976
     11          1           0       -2.478727   -1.328411    0.470524
     12         17           0       -0.489179    0.166572    2.294336
     13          1           0       -1.585227    2.309031    0.939948
     14          1           0       -1.778665   -1.785143   -0.935889
 ---------------------------------------------------------------------
                    Distance matrix (angstroms):
                    1          2          3          4          5
     1  Pt   0.000000
     2  N    2.062507   0.000000
     3  H    2.585783   1.003987   0.000000
     4  H    2.574474   1.002634   1.634905   0.000000
     5  Cl   2.292702   3.090938   3.105863   3.154309   0.000000
     6  O    1.995776   3.350498   3.348632   4.148353   3.036570
     7  H    2.510485   3.258063   3.015487   4.151084   3.406999
     8  H    2.479164   3.942851   3.856827   4.626381   2.778609
     9  N    2.002444   3.483912   4.245137   3.487291   3.042573
    10  H    2.521705   4.253975   4.994291   4.388918   3.715110
    11  H    2.534333   3.497609   4.393123   3.333766   3.713789
    12  Cl   2.294034   3.088372   3.786197   3.726693   4.586701
    13  H    2.581645   1.003705   1.635527   1.636818   4.036949
    14  H    2.521626   3.897120   4.547429   3.743883   2.695223
                    6          7          8          9         10
     6  O    0.000000
     7  H    0.963487   0.000000
     8  H    0.961503   1.564010   0.000000
     9  N    3.634514   4.377820   3.853636   0.000000
    10  H    3.738104   4.588001   3.930164   1.003051   0.000000
    11  H    4.361246   5.007127   4.707550   1.004825   1.635058
    12  Cl   3.044965   3.399505   3.884057   3.036968   3.057667
    13  H    3.736884   3.576310   4.486795   3.916896   4.580135
    14  H    4.048390   4.794343   4.052183   1.004060   1.637103
                   11         12         13         14
    11  H    0.000000
    12  Cl   3.085379   0.000000
    13  H    3.774875   2.761488   0.000000
    14  H    1.636058   3.988272   4.507598   0.000000
 Stoichiometry    Cl2H8N2OPt
 Framework group  C1[X(Cl2H8N2OPt)]
 Deg. of freedom    36
 Full point group                 C1      NOp   1
 RotChk:  IX=2 Diff= 5.71D-01
 Largest Abelian subgroup         C1      NOp   1
 Largest concise Abelian subgroup C1      NOp   1
                         Standard orientation:                         
 ---------------------------------------------------------------------
 Center     Atomic      Atomic             Coordinates (Angstroms)
 Number     Number       Type             X           Y           Z
 ---------------------------------------------------------------------
      1         78           0        0.005073    0.015071    0.027831
      2          7           0        0.024606   -0.700520   -1.906460
      3          1           0       -0.497688   -1.556064   -1.963409
      4          1           0       -0.390458   -0.021054   -2.515821
      5         17           0       -2.287253    0.048652    0.003498
      6          8           0       -0.034960   -1.477463    1.352166
      7          1           0       -0.028121   -2.334401    0.911806
      8          1           0       -0.838493   -1.406570    1.875421
      9          7           0        0.029337    1.999417    0.295347
     10          1           0        0.502311    2.216456    1.152845
     11          1           0        0.506840    2.449763   -0.465476
     12         17           0        2.298727   -0.005475    0.064156
     13          1           0        0.970068   -0.872993   -2.195909
     14          1           0       -0.913147    2.342729    0.340047
 ---------------------------------------------------------------------
 Rotational constants (GHZ):      2.2176880      1.0668331      1.0177450
 Leave Link  202 at Wed Dec 23 10:03:09 2020, MaxMem=  4026531840 cpu:         0.0
 (Enter /home/scicons/Gaussian09D/Gaussian09.D01/l301.exe)
 Standard basis: def2TZVP (5D, 7F)
 Ernie: Thresh=  0.10000D-02 Tol=  0.10000D-05 Strict=F.
 There are   286 symmetry adapted cartesian basis functions of A   symmetry.
 There are   255 symmetry adapted basis functions of A   symmetry.
   255 basis functions,   430 primitive gaussians,   286 cartesian basis functions
    41 alpha electrons       41 beta electrons
       nuclear repulsion energy       557.6142057542 Hartrees.
 IExCor=  402 DFT=T Ex+Corr=B3LYP ExCW=0 ScaHFX=  0.200000
 ScaDFX=  0.800000  0.720000  1.000000  0.810000 ScalE2=  1.000000  1.000000
 IRadAn=      0 IRanWt=     -1 IRanGd=            0 ICorTp=0 IEmpDi=141
 NAtoms=   14 NActive=   14 NUniq=   14 SFac= 1.00D+00 NAtFMM=   60 NAOKFM=F Big=F
 Integral buffers will be    131072 words long.
 Raffenetti 2 integral format.
 Two-electron integral symmetry is turned on.
 R6Disp:  Grimme-D3(BJ) Dispersion energy=       -0.0296222279 Hartrees.
 Nuclear repulsion after empirical dispersion term =      557.5845835263 Hartrees.
 Force inversion solution in PCM.
 ------------------------------------------------------------------------------
 Polarizable Continuum Model (PCM)
 =================================
 Model                : PCM (using non-symmetric T matrix).
 Atomic radii         : SMD-Coulomb.
 Polarization charges : Total charges.
 Charge compensation  : None.
 Solution method      : Matrix inversion.
 Cavity type          : VdW (van der Waals Surface) (Alpha=1.000).
 Cavity algorithm     : GePol (No added spheres)
                        Default sphere list used, NSphG=   14.
                        Lebedev-Laikov grids with approx.  5.0 points / Ang**2.
                        Smoothing algorithm: Karplus/York (Gamma=1.0000).
                        Polarization charges: spherical gaussians, with
                                              point-specific exponents (IZeta= 3).
                        Self-potential: point-specific (ISelfS= 7).
                        Self-field    : sphere-specific E.n sum rule (ISelfD= 2).
 1st derivatives      : Analytical E(r).r(x)/FMM algorithm (CHGder, D1EAlg=3).
                        Cavity 1st derivative terms included.
 2nd derivatives      : Analytical E(r).r(xy)/FMM algorithm (CHGder, D2EAlg=3).
                        Cavity 2nd derivative terms included.
 Solvent              : Water, Eps=  78.355300 Eps(inf)=   1.777849
 ------------------------------------------------------------------------------
 Spheres list:
 ISph  on   Nord     Re0    Alpha      Xe            Ye            Ze
    1  Pt      1    1.7500  1.000      0.005073      0.015071      0.027831
    2   N      2    1.8900  1.000      0.024606     -0.700520     -1.906460
    3   H      3    1.2000  1.000     -0.497688     -1.556064     -1.963409
    4   H      4    1.2000  1.000     -0.390458     -0.021054     -2.515821
    5  Cl      5    2.3800  1.000     -2.287253      0.048652      0.003498
    6   O      6    1.5200  1.000     -0.034960     -1.477463      1.352166
    7   H      7    1.2000  1.000     -0.028121     -2.334401      0.911806
    8   H      8    1.2000  1.000     -0.838493     -1.406570      1.875421
[...]
 Vib (V=0)    5  0.216189D+01          0.334835          0.770985
 Vib (V=0)    6  0.210622D+01          0.323505          0.744897
 Vib (V=0)    7  0.201476D+01          0.304224          0.700501
 Vib (V=0)    8  0.187430D+01          0.272840          0.628236
 Vib (V=0)    9  0.170187D+01          0.230927          0.531729
 Vib (V=0)   10  0.164264D+01          0.215543          0.496306
 Vib (V=0)   11  0.145853D+01          0.163917          0.377432
 Vib (V=0)   12  0.142515D+01          0.153862          0.354280
 Vib (V=0)   13  0.129074D+01          0.110839          0.255215
 Vib (V=0)   14  0.128477D+01          0.108827          0.250582
 Vib (V=0)   15  0.116991D+01          0.068152          0.156926
 Vib (V=0)   16  0.109409D+01          0.039052          0.089921
 Vib (V=0)   17  0.109037D+01          0.037573          0.086516
 Vib (V=0)   18  0.108248D+01          0.034420          0.079254
 Electronic      0.100000D+01          0.000000          0.000000
 Translational   0.221807D+09          8.345975         19.217317
 Rotational      0.717384D+06          5.855752         13.483366
 
                                                         Title Card Required
                                                             IR Spectrum
 
     3  3   3333 33                                                        11111         1       1                                   
     8  7   5555 44                                                        66665         2       0       87      5554332211111111    
     1  3   8732 53                                                        21109         9       7       29      310010549854321086  
     4  5   0338 87                                                        24166         7       0       90      368029104482399141  
 
     X  X   XXXX XX                                                        XXXXX         X       X       XX      XXXXXXXXXXXXXXXXXX  
     X  X   XXXX  X                                                        XXXXX         X       X       XX      XXXX XXXXXXX    X   
     X  X   X XX                                                            XXXX         X       X        X      XXXX XXXXXX     X   
     X  X     XX                                                              XX         X       X        X      XXXX XXXXXX         
     X  X     XX                                                              XX         X       X        X        XX XXXXXX         
     X        XX                                                               X         X       X                 XX X  XXX         
     X        XX                                                               X         X       X                 X  X    X         
     X        X                                                                X         X       X                 X  X    X         
     X                                                                         X         X       X                 X       X         
     X                                                                         X                 X                 X       X         
     X                                                                         X                 X                 X       X         
     X                                                                                           X                 X       X         
     X                                                                                           X                 X                 
                                                                                                 X                 X                 
                                                                                                 X                 X                 
                                                                                                                   X                 
                                                                                                                   X                 
                                                                                                                   X                 
                                                                                                                   X                 
                                                                                                                   X                 
 
 ***** Axes restored to original set *****
 -------------------------------------------------------------------
 Center     Atomic                   Forces (Hartrees/Bohr)
 Number     Number              X              Y              Z
 -------------------------------------------------------------------
      1       78          -0.000001408   -0.000000259   -0.000000983
      2        7           0.000004923   -0.000001488    0.000001270
      3        1           0.000006254    0.000003402    0.000008744
      4        1           0.000004833    0.000003703    0.000005286
      5       17          -0.000000830    0.000005902   -0.000002202
      6        8           0.000000627   -0.000006370    0.000000287
      7        1           0.000002623   -0.000002746    0.000004608
      8        1           0.000000330   -0.000002362    0.000000999
      9        7          -0.000005157    0.000002884   -0.000006714
     10        1          -0.000006071   -0.000000838   -0.000007575
     11        1          -0.000005445    0.000003935   -0.000005846
     12       17          -0.000001102   -0.000006292    0.000001849
     13        1           0.000005640   -0.000002814    0.000006190
     14        1          -0.000005218    0.000003344   -0.000005913
 -------------------------------------------------------------------
 Cartesian Forces:  Max     0.000008744 RMS     0.000004356
 Red2BG is reusing G-inverse.
 Leave Link  716 at Wed Dec 23 10:26:37 2020, MaxMem=  4026531840 cpu:         0.7
 (Enter /home/scicons/Gaussian09D/Gaussian09.D01/l9999.exe)
 1\1\GINC-CU04\Freq\RB3LYP\def2TZVP\Cl2H8N2O1Pt1\SKY\23-Dec-2020\0\\#p 
 opt=(calcall, ts, noeigen) b3lyp/def2tzvp em=gd3bj scrf=(smd,solvent=w
 ater) geom=connectivity\\Title Card Required\\0,1\Pt,-0.6474198652,-0.
 2728095674,0.0047786693\N,-1.0272063318,2.3375289755,0.0029745276\H,-0
 .6463312337,2.9710255606,-0.6938553445\H,-2.0314390513,2.30598807,-0.1
 315958877\Cl,-0.4587154463,-0.4042322466,-2.3230376357\O,1.5067640745,
 0.8982456423,-0.0150437575\H,1.2394641426,1.8275285361,0.004091457\H,1
 .7688129833,0.7375439907,-0.9334916479\N,-1.7846729046,-1.9480621403,0
 .010787536\H,-1.3641064645,-2.667916877,0.5935362248\H,-2.7123894335,-
 1.7512768384,0.3788198281\Cl,-0.8143339241,-0.1944386624,2.3371226291\
 H,-0.8551263464,2.734012802,0.9214615732\H,-1.8846793689,-2.3153009752
 ,-0.9332227017\\Version=ES64L-G09RevD.01\State=1-A\HF=-1229.6541072\RM
 SD=9.939e-09\RMSF=4.356e-06\ZeroPoint=0.1026686\Thermal=0.1152545\Dipo
 le=-1.2536411,0.5027519,-0.678459\DipoleDeriv=0.9201773,0.2910245,-0.2
 09993,0.3291851,1.3311291,0.0798054,-0.1988849,0.0446846,1.7161708,-0.
 6089977,0.0223731,-0.0030043,0.2737173,-1.105577,-0.0292599,-0.0171298
 ,0.0211495,-0.3695393,0.2516594,0.0035832,-0.0020513,-0.0493799,0.0775
 042,0.0768393,0.000822,0.038551,0.2032028,0.1622557,-0.0204221,-0.0060
 448,0.060054,0.3219708,0.0124415,0.0064266,0.0085917,0.2281854,-0.4608
 553,-0.0631908,0.1058145,-0.0607681,-0.4318041,-0.034733,0.0695297,-0.
 0433735,-1.3883606,-1.3850733,-0.0497245,0.0393203,-0.3839373,-0.68314
 81,-0.0486544,-0.0119823,-0.0849654,-0.4614407,0.4707047,0.0095178,0.0
 144501,0.0116689,0.321432,0.0303286,0.0266378,0.0648778,0.3545005,0.50
 31983,0.0353665,-0.0416462,0.0103344,0.3694315,0.0258613,0.0374292,0.0
 416506,0.310703,-0.4727954,-0.0880654,0.0031035,-0.0478102,-0.6391044,
 -0.0067972,0.0075562,0.0390497,-0.1442061,0.2650722,-0.1183115,-0.0087
 166,0.0086248,0.2239161,-0.0131167,0.0114156,-0.0109547,0.2643841,0.25
 81906,0.0074399,0.0015222,-0.1100297,0.2241857,-0.0087692,-0.0007199,0
 .0059786,0.2662407,-0.3927189,-0.0194962,0.0748662,-0.0074025,-0.43912
 14,-0.0484914,0.0761593,-0.0529086,-1.402959,0.2449964,-0.0076995,0.01
 73336,-0.038062,0.1914457,-0.057183,0.0078365,-0.0609834,0.1685817,0.2
 441859,-0.0023951,0.0150457,0.003805,0.2377399,0.0217287,-0.0150962,-0
 .0113481,0.2545368\Polar=112.0214649,2.7390108,123.1355037,-5.8792642,
 3.032322,154.0531149\PG=C01 [X(Cl2H8N2O1Pt1)]\NImag=1\\0.05614860,0.10
 240084,0.14724942,-0.01381713,0.00949113,0.24859064,0.00021771,-0.0008
 6433,-0.00006721,0.58329082,-0.02156466,0.00667666,0.00060853,0.151533
 80,0.29122377,0.00114791,-0.00186126,-0.01058149,0.01283215,-0.0306554
 4,0.64937245,0.00255584,-0.00243989,-0.00180437,-0.09404363,-0.0864373
 2,0.07920134,0.10647139,-0.00361949,0.00238558,0.00218661,-0.11748640,
 -0.18128378,0.18183450,0.10553414,0.17759095,-0.00134804,0.00170071,0.
 00036957,0.09159206,0.14816920,-0.22549795,-0.10035924,-0.17141380,0.2
 4232185,-0.00092658,0.00031815,-0.00006823,-0.42127275,-0.03277306,-0.
 05218131,-0.01347714,0.00344195,-0.00363334,0.44104734,0.00205226,-0.0
 0102301,0.00050746,0.01135751,-0.01547647,0.00744264,-0.02465647,-0.00
 366995,-0.00349091,0.02611684,0.02445669,0.00023915,0.00000043,-0.0000
 2926,-0.04562363,0.00173201,-0.06105122,0.02882504,0.00046941,0.004121
 86,0.05380936,-0.00152917,0.06076603,-0.01549569,-0.00233439,0.0034965
 4,0.00021028,0.00029576,0.00042594,-0.00005383,0.00005469,0.00004277,0
 .00012948,-0.00020979,-0.00010131,0.01037647,-0.00167370,-0.01739293,-
 0.00829799,-0.00004623,-0.00096302,-0.00255796,-0.00025656,0.00072433,
 0.00037055,-0.00010027,0.00017953,0.00006148,0.00342783,0.01328706,0.0
 0764324,-0.00144687,-0.09100917,-0.00003354,-0.00182020,-0.00038703,0.
 00002101,-0.00021622,0.00022146,-0.00021935,0.00017189,0.00001033,-0.0
 0917876,0.00566619,0.11045044,0.02298946,-0.01898026,-0.00581632,-0.01
 334233,0.01379018,-0.00042518,-0.00066605,0.00055880,0.00048512,-0.000
 21955,0.00309133,0.00060178,-0.00082779,-0.00154272,-0.00151140,0.0904
 3440,0.00900616,-0.01855292,-0.00515227,0.00532362,0.00348053,0.000425
 84,-0.00077325,0.00130715,0.00011249,0.00004240,-0.00129888,-0.0003752
 4,-0.00157608,-0.00050061,-0.00134948,-0.15869318,0.52537711,-0.000223
 73,-0.00058465,-0.01461994,0.00069946,-0.00055928,0.00159459,0.0001631
 2,-0.00034360,-0.00010768,0.00008046,-0.00027863,0.00031810,-0.0034952
 9,-0.00218690,-0.00087752,-0.13002334,0.06871666,0.49782699,0.00097490
 ,-0.00843441,-0.00033617,0.00308722,0.00244822,0.00090968,-0.00232769,
 0.00255209,-0.00095725,0.00045478,-0.00223750,-0.00050369,-0.00027515,
 0.00008937,-0.00004518,-0.04566180,0.12661339,0.01799607,0.04994436,-0
 .00586807,-0.00258985,0.00053283,0.00191316,-0.00243907,-0.00075965,0.
 00105150,-0.00105086,0.00061230,0.00044503,-0.00008824,0.00017036,-0.0
 0007740,0.00005585,-0.00019090,0.13542437,-0.45839661,-0.02617962,-0.1
 3591227,0.47495820,-0.00134531,0.00001550,0.00070435,0.00039854,-0.001
 02910,-0.00031393,-0.00078749,0.00094330,-0.00048628,0.00010309,0.0000
 5639,-0.00055445,-0.00029120,-0.00000512,-0.00023067,0.00400081,0.0241
 3812,-0.03959910,-0.01636116,0.02129826,0.04486525,-0.00566181,-0.0008
 3696,0.00793037,-0.00051168,-0.00002987,-0.00056609,-0.00005651,0.0001
 4861,-0.00004176,-0.00008262,0.00014636,-0.00008909,0.00136102,0.00061
 041,0.00000051,-0.04087774,0.03093475,0.11272333,-0.00324364,0.0020603
 3,0.01331802,0.04869498,-0.00052156,-0.00009011,0.00385596,0.00001618,
 0.00047548,-0.00002584,-0.00005398,-0.00000597,0.00001137,0.00000393,0
 .00001626,0.00005027,0.00060288,-0.00073567,-0.00064168,0.01998729,-0.
 05319161,-0.04070041,0.01310973,-0.00936804,-0.04461888,-0.03221603,0.
 06320165,0.00272418,0.00061832,0.00017147,-0.00051312,0.00079703,-0.00
 003701,0.00000808,-0.00007803,0.00009310,-0.00010575,0.00009802,0.0000
 2083,0.00154897,0.00001394,-0.00022847,0.12986472,-0.08892498,-0.44935
 545,-0.00126257,0.00505728,-0.00396330,-0.13154950,0.08266001,0.453246
 08,-0.04015808,-0.04793898,0.00251311,-0.00140628,0.00671472,-0.000143
 55,-0.00037779,0.00059447,0.00008300,0.00023336,-0.00006469,-0.0000100
 1,-0.00013794,-0.00169474,0.00128234,-0.01050438,-0.01035078,0.0005119
 5,-0.00223147,0.00017866,0.00032163,0.00044842,-0.00037756,-0.00076369
 ,0.56887300,-0.05733396,-0.08069232,0.00117446,-0.00198195,-0.01000268
 ,0.00027176,0.00115857,-0.00199463,-0.00080953,-0.00032624,0.00013812,
 0.00000158,-0.00118592,0.00043076,0.00133414,0.00738365,0.00229779,0.0
 0014263,-0.00006984,-0.00064835,-0.00005992,-0.00033488,-0.00002006,0.
 00002767,-0.13109317,0.46245152,0.00134830,-0.00212505,-0.04908084,0.0
 0008777,0.00064168,0.00273927,0.00026623,-0.00032659,-0.00002090,0.000
 07383,-0.00017578,0.00004013,0.00542666,0.00719780,-0.00134980,0.00117
 371,0.00107106,0.00393495,0.00006390,-0.00003671,-0.00002381,-0.001139
 22,-0.00053374,0.00018861,-0.00090966,0.00088325,0.68669101,0.00241285
 ,-0.00576395,0.00790099,-0.00014864,-0.00214499,-0.00024947,0.00016169
 ,-0.00029979,-0.00011843,-0.00009735,0.00006540,-0.00000493,-0.0003471
 8,-0.00009680,-0.00006236,0.00048054,0.00038101,-0.00027877,0.00018727
 ,-0.00000678,-0.00001250,0.00010306,0.00005348,-0.00000748,-0.10505947
 ,0.10504615,-0.07807858,0.11771656,-0.00308973,-0.01137174,0.00788163,
 0.00009429,-0.00162206,-0.00014885,0.00013526,-0.00021016,-0.00009942,
 -0.00003237,-0.00002007,-0.00000447,-0.00001238,-0.00002380,-0.0004280
 8,0.00146882,0.00109402,-0.00033044,0.00024236,-0.00007360,-0.00003091
 ,0.00000403,0.00007462,0.00004339,0.12729323,-0.22844755,0.15283621,-0
 .12078092,0.23381515,0.00180837,0.00029436,0.00178424,-0.00009419,-0.0
 0077589,-0.00004261,0.00004767,-0.00011463,-0.00005325,-0.00004351,0.0
 0005231,0.00000520,0.00022253,0.00043402,0.00004412,-0.00000624,-0.000
 07654,0.00001898,0.00001847,-0.00001973,0.00000512,-0.00000088,-0.0000
 0802,-0.00001205,-0.08731393,0.14100264,-0.17514465,0.09373819,-0.1553
 1957,0.18150545,-0.00615674,-0.00613840,0.00282138,0.00003513,0.001113
 77,-0.00011510,-0.00012359,0.00019970,0.00006670,0.00002252,-0.0000073
 4,-0.00000539,-0.00001215,-0.00005055,-0.00036212,-0.00125683,-0.00068
 934,-0.00003171,-0.00012697,0.00009283,0.00002436,0.00001704,-0.000042
 54,-0.00007658,-0.35468154,0.08294701,0.12012870,-0.01370953,0.0021886
 6,0.00666981,0.36992975,-0.01049681,0.00061448,0.00687426,-0.00005829,
 0.00109603,-0.00019504,-0.00010263,0.00016152,0.00004731,0.00004355,0.
 00001801,-0.00002028,0.00002818,-0.00028885,-0.00009953,-0.00329845,-0
 .00263983,-0.00015570,-0.00036737,0.00014551,0.00009147,0.00026957,-0.
 00004134,-0.00022168,0.05734195,-0.04939503,-0.01994765,0.02327755,-0.
 00554299,-0.01145548,-0.07839784,0.05944780,-0.00077400,0.00135329,0.0
 0091457,-0.00003940,-0.00006870,-0.00001549,0.00000230,-0.00002161,-0.
 00000598,0.00000762,0.00002645,-0.00001312,0.00025452,0.00039316,0.000
 02819,-0.00038936,-0.00041061,0.00008589,-0.00006089,-0.00000326,0.000
 01955,0.00000403,-0.00002064,-0.00003238,0.11593843,-0.02803338,-0.105
 35457,-0.02158771,0.00438510,0.00946637,-0.12699979,0.02892533,0.10479
 899,-0.01600690,-0.00192892,0.00683940,0.00060989,0.00007271,-0.000216
 62,0.00001734,0.00000830,0.00002699,0.00007975,-0.00024519,0.00011066,
 0.00517314,-0.00036480,0.00158736,0.00022543,0.00033047,0.00176407,0.0
 0011973,0.00005915,-0.00001342,-0.00019969,-0.00038232,0.00017454,0.00
 049284,-0.00066025,-0.00455759,0.00008151,0.00016403,-0.00002549,0.000
 65033,0.00034007,0.00041849,0.00909131,-0.00254829,-0.01669461,-0.0002
 8289,-0.00062191,-0.00210933,0.00319736,0.00047576,-0.00053454,0.00026
 394,-0.00000033,0.00005755,-0.00002443,-0.00018822,0.00485598,-0.00179
 714,-0.00003825,0.00021615,0.00122306,0.00025581,0.00002928,-0.0001121
 4,-0.00025004,-0.00024346,0.00005041,0.00011648,-0.00069102,-0.0066551
 1,-0.00012623,0.00139660,0.00005934,0.00038227,0.00031698,0.00024765,0
 .00299712,0.01231974,0.00320979,-0.00481886,-0.09172600,0.00051180,0.0
 0195520,-0.00143379,-0.00015881,0.00040608,-0.00000146,0.00017060,-0.0
 0022258,0.00004551,0.00234221,-0.00005630,-0.01701063,0.00197841,0.001
 54889,0.00081427,-0.00016892,-0.00015676,-0.00015321,-0.00071811,-0.00
 016769,-0.00016298,-0.00118261,-0.00239141,-0.00078695,-0.00084250,-0.
 00034634,-0.00044318,0.00031100,-0.00054770,0.00000667,-0.00603009,0.0
 0439449,0.11039943,0.00110028,-0.00079743,0.00173553,-0.05669721,-0.03
 285739,-0.04093596,0.00185580,0.00839930,0.01418690,-0.00590014,-0.015
 38109,-0.03725219,-0.00001043,0.00032665,0.00002696,-0.00052382,-0.000
 37538,-0.00041757,-0.00088791,0.00063303,0.00063261,0.00018950,-0.0000
 6998,0.00001890,-0.00014645,0.00064109,-0.00031886,0.00013224,0.000102
 34,0.00003326,-0.00004592,-0.00001747,0.00000138,-0.00022355,-0.000216
 50,0.00006450,0.06117845,-0.00156860,0.00029154,-0.00385000,-0.0491667
 8,-0.08844857,-0.15746060,0.00624761,0.00676890,0.02458118,0.00282554,
 -0.00324088,-0.00052620,0.00006231,-0.00051490,0.00000288,0.00060429,0
 .00056562,0.00058018,0.00164761,-0.00052231,-0.00068093,-0.00023434,0.
 00006762,-0.00005296,0.00016392,-0.00143842,0.00071091,-0.00027022,-0.
 00022297,-0.00010163,0.00008632,0.00003836,-0.00003337,-0.00007533,0.0
 0133199,-0.00025754,0.03963382,0.08528808,0.00071627,-0.00092183,0.000
 45547,-0.05986529,-0.11963364,-0.35420762,-0.00534942,-0.01346644,-0.0
 2101341,0.00197723,-0.00264130,-0.00368612,-0.00003347,-0.00001133,0.0
 0001498,-0.00038287,-0.00011374,0.00019134,0.00067817,-0.00032130,-0.0
 0025368,0.00004018,0.00005246,-0.00010048,-0.00005848,0.00039292,-0.00
 005125,0.00007505,0.00005452,0.00004284,-0.00002442,-0.00001598,0.0000
 0164,-0.00001747,-0.00042516,0.00046447,0.06224169,0.13704704,0.378160
 83,-0.00199384,-0.00626108,-0.01132788,-0.00002853,-0.00016187,0.00031
 625,0.00006416,-0.00008637,-0.00002549,0.00000892,-0.00002764,0.000004
 26,-0.00009023,0.00137211,0.00085128,-0.00024955,-0.00017380,0.0005319
 5,-0.00001364,0.00000647,0.00001203,-0.00018032,-0.00010953,-0.0000607
 1,-0.05534423,-0.00419025,-0.04356517,-0.00191355,-0.00777763,-0.01505
 406,0.00545851,0.01143800,0.03322438,-0.00011112,-0.00023767,0.0005127
 4,-0.00002083,0.00004386,0.00000282,0.05441425,-0.00517439,-0.00881018
 ,-0.01552972,-0.00001267,-0.00060750,0.00049253,0.00011723,-0.00018855
 ,-0.00005541,-0.00000512,-0.00004864,-0.00000576,0.00111252,0.00088627
 ,0.00081499,0.00024410,0.00024209,0.00065671,0.00006283,-0.00001190,-0
 .00000605,-0.00027194,-0.00013939,-0.00008842,-0.00088351,-0.09198810,
 -0.13354029,0.00066610,0.01115455,0.02602883,-0.00168454,-0.00393064,-
 0.00673942,-0.00031502,-0.00025130,0.00066053,-0.00002099,0.00003594,0
 .00000377,0.00616540,0.09365735,-0.00132901,-0.00171520,0.00405639,0.0
 0011459,0.00063860,-0.00013816,-0.00007545,0.00014100,0.00005908,0.000
 02930,-0.00001679,0.00000619,-0.00066010,-0.00102153,0.00032378,0.0004
 5017,0.00038981,-0.00022541,0.00002953,-0.00000309,-0.00001582,0.00008
 823,0.00008681,0.00017202,-0.03026853,-0.11393682,-0.36178120,-0.00047
 148,-0.00849279,-0.01717659,-0.00240688,-0.00327935,-0.00990032,-0.000
 06082,-0.00013939,-0.00001214,-0.00001715,0.00004104,-0.00001901,0.034
 57761,0.12730770,0.38465121\\0.00000141,0.00000026,0.00000098,-0.00000
 492,0.00000149,-0.00000127,-0.00000625,-0.00000340,-0.00000874,-0.0000
 0483,-0.00000370,-0.00000529,0.00000083,-0.00000590,0.00000220,-0.0000
 0063,0.00000637,-0.00000029,-0.00000262,0.00000275,-0.00000461,-0.0000
 0033,0.00000236,-0.00000100,0.00000516,-0.00000288,0.00000671,0.000006
 07,0.00000084,0.00000757,0.00000545,-0.00000393,0.00000585,0.00000110,
 0.00000629,-0.00000185,-0.00000564,0.00000281,-0.00000619,0.00000522,-
 0.00000334,0.00000591\\\@


 A COMPUTER IS LIKE A HORSE, IT WILL SENSE WEAKNESS.
     -- GREG WETTSTEIN
 Job cpu time:       0 days  8 hours 21 minutes 43.0 seconds.
 File lengths (MBytes):  RWF=    164 Int=      0 D2E=      0 Chk=     13 Scr=      1
 Normal termination of Gaussian 09 at Wed Dec 23 10:26:37 2020.
