 Entering Gaussian System, Link 0=g09
 Input=pt-cl-o.gjf
 Output=pt-cl-o.log
 Initial command:
 /home/scicons/Gaussian09D/Gaussian09.D01/l1.exe "/tmp/Gau-71521.inp" -scrdir="/tmp/"
 Entering Link 1 = /home/scicons/Gaussian09D/Gaussian09.D01/l1.exe PID=     71522.
  
 Copyright (c) 1988,1990,1992,1993,1995,1998,2003,2009,2013,
            Gaussian, Inc.  All Rights Reserved.
  
 This is part of the Gaussian(R) 09 program.  It is based on
 the Gaussian(R) 03 system (copyright 2003, Gaussian, Inc.),
 the Gaussian(R) 98 system (copyright 1998, Gaussian, Inc.),
 the Gaussian(R) 94 system (copyright 1995, Gaussian, Inc.),
 the Gaussian 92(TM) system (copyright 1992, Gaussian, Inc.),
 the Gaussian 90(TM) system (copyright 1990, Gaussian, Inc.),
 the Gaussian 88(TM) system (copyright 1988, Gaussian, Inc.),
 the Gaussian 86(TM) system (copyright 1986, Carnegie Mellon
 University), and the Gaussian 82(TM) system (copyright 1983,
 Carnegie Mellon University). Gaussian is a federally registered
 trademark of Gaussian, Inc.
  
 This software contains proprietary and confidential information,
 including trade secrets, belonging to Gaussian, Inc.
  
 This software is provided under written license and may be
 used, copied, transmitted, or stored only in accord with that
 written license.
  
 The following legend is applicable only to US Government
 contracts under FAR:
  
                    RESTRICTED RIGHTS LEGEND
  
 Use, reproduction and disclosure by the US Government is
 subject to restrictions as set forth in subparagraphs (a)
 and (c) of the Commercial Computer Software - Restricted
 Rights clause in FAR 52.227-19.
  
 Gaussian, Inc.
 340 Quinnipiac St., Bldg. 40, Wallingford CT 06492
  
  
 ---------------------------------------------------------------
 Warning -- This program may not be used in any manner that
 competes with the business of Gaussian, Inc. or will provide
 assistance to any competitor of Gaussian, Inc.  The licensee
 of this program is prohibited from giving any competitor of
 Gaussian, Inc. access to this program.  By using this program,
 the user acknowledges that Gaussian, Inc. is engaged in the
 business of creating and licensing software in the field of
 computational chemistry and represents and warrants to the
 licensee that it is not a competitor of Gaussian, Inc. and that
 it will not use this program in any manner prohibited above.
 ---------------------------------------------------------------
  

 Cite this work as:
 Gaussian 09, Revision D.01,
 M. J. Frisch, G. W. Trucks, H. B. Schlegel, G. E. Scuseria, 
 M. A. Robb, J. R. Cheeseman, G. Scalmani, V. Barone, B. Mennucci, 
 G. A. Petersson, H. Nakatsuji, M. Caricato, X. Li, H. P. Hratchian, 
 A. F. Izmaylov, J. Bloino, G. Zheng, J. L. Sonnenberg, M. Hada, 
 M. Ehara, K. Toyota, R. Fukuda, J. Hasegawa, M. Ishida, T. Nakajima, 
 Y. Honda, O. Kitao, H. Nakai, T. Vreven, J. A. Montgomery, Jr., 
 J. E. Peralta, F. Ogliaro, M. Bearpark, J. J. Heyd, E. Brothers, 
 K. N. Kudin, V. N. Staroverov, T. Keith, R. Kobayashi, J. Normand, 
 K. Raghavachari, A. Rendell, J. C. Burant, S. S. Iyengar, J. Tomasi, 
 M. Cossi, N. Rega, J. M. Millam, M. Klene, J. E. Knox, J. B. Cross, 
 V. Bakken, C. Adamo, J. Jaramillo, R. Gomperts, R. E. Stratmann, 
 O. Yazyev, A. J. Austin, R. Cammi, C. Pomelli, J. W. Ochterski, 
 R. L. Martin, K. Morokuma, V. G. Zakrzewski, G. A. Voth, 
 P. Salvador, J. J. Dannenberg, S. Dapprich, A. D. Daniels, 
 O. Farkas, J. B. Foresman, J. V. Ortiz, J. Cioslowski, 
 and D. J. Fox, Gaussian, Inc., Wallingford CT, 2013.
 
 ******************************************
 Gaussian 09:  ES64L-G09RevD.01 24-Apr-2013
                23-Dec-2020 
 ******************************************
 %nproc=24
 Will use up to   24 processors via shared memory.
 %mem=30GB
 %chk=pt-cl-o.chk
 ----------------------------------------------------------------------
 #p opt=(calcall, ts, noeigen) b3lyp/def2tzvp em=gd3bj scrf=(smd,solven
 t=water) geom=connectivity
 ----------------------------------------------------------------------
 1/5=1,10=4,11=1,14=-1,18=20,26=3,38=1,57=2/1,3;
 2/9=110,12=2,17=6,18=5,40=1/2;
 3/5=44,7=101,11=2,16=1,25=1,30=1,70=32201,71=2,72=1,74=-5,124=41,140=1/1,2,3;
 4//1;
 5/5=2,38=5,53=1/2;
 8/6=4,10=90,11=11/1;
 11/6=1,8=1,9=11,15=111,16=1/1,2,10;
 10/6=1/2;
 6/7=2,8=2,9=2,10=2,18=1,28=1/1;
 7/10=1,25=1/1,2,3,16;
 1/5=1,10=4,11=1,14=-1,18=20,26=3/3(3);
 2/9=110/2;
 7/8=1,9=1,25=1,44=-1/16;
 99//99;
 2/9=110/2;
 3/5=44,7=101,11=2,16=1,25=1,30=1,70=32205,71=2,72=1,74=-5,124=41,140=1/1,2,3;
 4/5=5,16=3,69=1/1;
 5/5=2,38=5,53=1/2;
 8/6=4,10=90,11=11/1;
 11/6=1,8=1,9=11,15=111,16=1/1,2,10;
 10/6=1/2;
 7/10=1,25=1/1,2,3,16;
 1/5=1,10=4,11=1,14=-1,18=20,26=3/3(-8);
 2/9=110/2;
 6/7=2,8=2,9=2,10=2,18=1,19=2,28=1/1;
 7/8=1,9=1,25=1,44=-1/16;
 99//99;
 Leave Link    1 at Wed Dec 23 10:08:51 2020, MaxMem=  4026531840 cpu:         0.9
 (Enter /home/scicons/Gaussian09D/Gaussian09.D01/l101.exe)
 -------------------
 Title Card Required
 -------------------
 Symbolic Z-matrix:
 Charge =  0 Multiplicity = 1
 Pt                   -2.38916  -0.22167   0. 
 Cl                   -3.52916   1.75286   0. 
 O                    -2.38916  -0.22167   1.95 
 H                    -1.55203   0.12243   2.27 
 H                    -3.10573   0.33125   2.27 
 N                    -0.39916  -0.22167   0. 
 H                    -0.06583  -1.06561  -0.42031 
 H                    -0.06583   0.56429  -0.52072 
 Cl                   -2.38916  -0.22167  -2.28 
 N                    -3.38416  -1.94507   0. 
 H                    -2.77294  -2.68285   0.28649 
 H                    -4.15464  -1.88513   0.63465 
 H                    -0.06583  -0.1637    0.94103 
 H                    -3.72491  -2.13324  -0.92113 
 
 NAtoms=     14 NQM=       14 NQMF=       0 NMMI=      0 NMMIF=      0
                NMic=       0 NMicF=      0.
                    Isotopes and Nuclear Properties:
 (Nuclear quadrupole moments (NQMom) in fm**2, nuclear magnetic moments (NMagM)
  in nuclear magnetons)

  Atom         1           2           3           4           5           6           7           8           9          10
 IAtWgt=         195          35          16           1           1          14           1           1          35          14
 AtmWgt= 194.9648000  34.9688527  15.9949146   1.0078250   1.0078250  14.0030740   1.0078250   1.0078250  34.9688527  14.0030740
 NucSpn=           1           3           0           1           1           2           1           1           3           2
 AtZEff=   0.0000000   0.0000000   0.0000000   0.0000000   0.0000000   0.0000000   0.0000000   0.0000000   0.0000000   0.0000000
 NQMom=    0.0000000  -8.1650000   0.0000000   0.0000000   0.0000000   2.0440000   0.0000000   0.0000000  -8.1650000   2.0440000
 NMagM=    0.6095000   0.8218740   0.0000000   2.7928460   2.7928460   0.4037610   2.7928460   2.7928460   0.8218740   0.4037610
 AtZNuc=  78.0000000  17.0000000   8.0000000   1.0000000   1.0000000   7.0000000   1.0000000   1.0000000  17.0000000   7.0000000

  Atom        11          12          13          14
 IAtWgt=           1           1           1           1
 AtmWgt=   1.0078250   1.0078250   1.0078250   1.0078250
 NucSpn=           1           1           1           1
 AtZEff=   0.0000000   0.0000000   0.0000000   0.0000000
 NQMom=    0.0000000   0.0000000   0.0000000   0.0000000
 NMagM=    2.7928460   2.7928460   2.7928460   2.7928460
 AtZNuc=   1.0000000   1.0000000   1.0000000   1.0000000
 Leave Link  101 at Wed Dec 23 10:08:51 2020, MaxMem=  4026531840 cpu:        12.7
 (Enter /home/scicons/Gaussian09D/Gaussian09.D01/l103.exe)

 GradGradGradGradGradGradGradGradGradGradGradGradGradGradGradGradGradGrad
 Berny optimization.
 Initialization pass.
                           ----------------------------
                           !    Initial Parameters    !
                           ! (Angstroms and Degrees)  !
 --------------------------                            --------------------------
 ! Name  Definition              Value          Derivative Info.                !
 --------------------------------------------------------------------------------
 ! R1    R(1,2)                  2.28           calculate D2E/DX2 analytically  !
 ! R2    R(1,3)                  1.95           calculate D2E/DX2 analytically  !
 ! R3    R(1,6)                  1.99           calculate D2E/DX2 analytically  !
 ! R4    R(1,9)                  2.28           calculate D2E/DX2 analytically  !
 ! R5    R(1,10)                 1.99           calculate D2E/DX2 analytically  !
 ! R6    R(3,4)                  0.96           calculate D2E/DX2 analytically  !
 ! R7    R(3,5)                  0.96           calculate D2E/DX2 analytically  !
 ! R8    R(6,7)                  1.0            calculate D2E/DX2 analytically  !
 ! R9    R(6,8)                  1.0            calculate D2E/DX2 analytically  !
 ! R10   R(6,13)                 1.0            calculate D2E/DX2 analytically  !
 ! R11   R(10,11)                1.0            calculate D2E/DX2 analytically  !
 ! R12   R(10,12)                1.0            calculate D2E/DX2 analytically  !
 ! R13   R(10,14)                1.0            calculate D2E/DX2 analytically  !
 ! A1    A(2,1,3)               90.0            calculate D2E/DX2 analytically  !
 ! A2    A(2,1,6)              120.0            calculate D2E/DX2 analytically  !
 ! A3    A(2,1,9)               90.0            calculate D2E/DX2 analytically  !
 ! A4    A(2,1,10)             120.0            calculate D2E/DX2 analytically  !
 ! A5    A(3,1,6)               90.0            calculate D2E/DX2 analytically  !
 ! A6    A(3,1,10)              90.0            calculate D2E/DX2 analytically  !
 ! A7    A(6,1,9)               90.0            calculate D2E/DX2 analytically  !
 ! A8    A(6,1,10)             120.0            calculate D2E/DX2 analytically  !
 ! A9    A(9,1,10)              90.0            calculate D2E/DX2 analytically  !
 ! A10   A(1,3,4)              109.4712         calculate D2E/DX2 analytically  !
 ! A11   A(1,3,5)              109.4712         calculate D2E/DX2 analytically  !
 ! A12   A(4,3,5)              109.4712         calculate D2E/DX2 analytically  !
 ! A13   A(1,6,7)              109.4712         calculate D2E/DX2 analytically  !
 ! A14   A(1,6,8)              109.4712         calculate D2E/DX2 analytically  !
 ! A15   A(1,6,13)             109.4712         calculate D2E/DX2 analytically  !
 ! A16   A(7,6,8)              109.4712         calculate D2E/DX2 analytically  !
 ! A17   A(7,6,13)             109.4712         calculate D2E/DX2 analytically  !
 ! A18   A(8,6,13)             109.4712         calculate D2E/DX2 analytically  !
 ! A19   A(1,10,11)            109.4712         calculate D2E/DX2 analytically  !
 ! A20   A(1,10,12)            109.4712         calculate D2E/DX2 analytically  !
 ! A21   A(1,10,14)            109.4712         calculate D2E/DX2 analytically  !
 ! A22   A(11,10,12)           109.4712         calculate D2E/DX2 analytically  !
 ! A23   A(11,10,14)           109.4712         calculate D2E/DX2 analytically  !
 ! A24   A(12,10,14)           109.4712         calculate D2E/DX2 analytically  !
 ! A25   L(3,1,9,2,-1)         180.0            calculate D2E/DX2 analytically  !
 ! A26   L(3,1,9,2,-2)         180.0            calculate D2E/DX2 analytically  !
 ! D1    D(2,1,3,4)            -97.6549         calculate D2E/DX2 analytically  !
 ! D2    D(2,1,3,5)             22.3451         calculate D2E/DX2 analytically  !
 ! D3    D(6,1,3,4)             22.3451         calculate D2E/DX2 analytically  !
 ! D4    D(6,1,3,5)            142.3451         calculate D2E/DX2 analytically  !
 ! D5    D(10,1,3,4)           142.3451         calculate D2E/DX2 analytically  !
 ! D6    D(10,1,3,5)           -97.6549         calculate D2E/DX2 analytically  !
 ! D7    D(2,1,6,7)           -153.5252         calculate D2E/DX2 analytically  !
 ! D8    D(2,1,6,8)            -33.5252         calculate D2E/DX2 analytically  !
 ! D9    D(2,1,6,13)            86.4748         calculate D2E/DX2 analytically  !
 ! D10   D(3,1,6,7)            116.4748         calculate D2E/DX2 analytically  !
 ! D11   D(3,1,6,8)           -123.5252         calculate D2E/DX2 analytically  !
 ! D12   D(3,1,6,13)            -3.5252         calculate D2E/DX2 analytically  !
 ! D13   D(9,1,6,7)            -63.5252         calculate D2E/DX2 analytically  !
 ! D14   D(9,1,6,8)             56.4748         calculate D2E/DX2 analytically  !
 ! D15   D(9,1,6,13)           176.4748         calculate D2E/DX2 analytically  !
 ! D16   D(10,1,6,7)            26.4748         calculate D2E/DX2 analytically  !
 ! D17   D(10,1,6,8)           146.4748         calculate D2E/DX2 analytically  !
 ! D18   D(10,1,6,13)          -93.5252         calculate D2E/DX2 analytically  !
 ! D19   D(2,1,10,11)         -162.3102         calculate D2E/DX2 analytically  !
 ! D20   D(2,1,10,12)          -42.3102         calculate D2E/DX2 analytically  !
 ! D21   D(2,1,10,14)           77.6898         calculate D2E/DX2 analytically  !
 ! D22   D(3,1,10,11)          -72.3102         calculate D2E/DX2 analytically  !
 ! D23   D(3,1,10,12)           47.6898         calculate D2E/DX2 analytically  !
 ! D24   D(3,1,10,14)          167.6898         calculate D2E/DX2 analytically  !
 ! D25   D(6,1,10,11)           17.6898         calculate D2E/DX2 analytically  !
 ! D26   D(6,1,10,12)          137.6898         calculate D2E/DX2 analytically  !
 ! D27   D(6,1,10,14)         -102.3102         calculate D2E/DX2 analytically  !
 ! D28   D(9,1,10,11)          107.6898         calculate D2E/DX2 analytically  !
 ! D29   D(9,1,10,12)         -132.3102         calculate D2E/DX2 analytically  !
 ! D30   D(9,1,10,14)          -12.3102         calculate D2E/DX2 analytically  !
 --------------------------------------------------------------------------------
 Trust Radius=3.00D-01 FncErr=1.00D-07 GrdErr=1.00D-06
 Number of steps in this run=     79 maximum allowed number of steps=    100.
 Search for a saddle point of order  1.
 GradGradGradGradGradGradGradGradGradGradGradGradGradGradGradGradGradGrad

 Leave Link  103 at Wed Dec 23 10:08:52 2020, MaxMem=  4026531840 cpu:         0.2
 (Enter /home/scicons/Gaussian09D/Gaussian09.D01/l202.exe)
                          Input orientation:                          
 ---------------------------------------------------------------------
 Center     Atomic      Atomic             Coordinates (Angstroms)
 Number     Number       Type             X           Y           Z
 ---------------------------------------------------------------------
      1         78           0       -2.389163   -0.221675    0.000000
      2         17           0       -3.529163    1.752863    0.000000
      3          8           0       -2.389163   -0.221675    1.950000
      4          1           0       -1.552029    0.122429    2.270000
      5          1           0       -3.105732    0.331252    2.270000
      6          7           0       -0.399163   -0.221675    0.000000
      7          1           0       -0.065829   -1.065612   -0.420308
      8          1           0       -0.065829    0.564291   -0.520717
      9         17           0       -2.389163   -0.221675   -2.280000
     10          7           0       -3.384163   -1.945065    0.000000
     11          1           0       -2.772940   -2.682855    0.286485
     12          1           0       -4.154638   -1.885132    0.634646
     13          1           0       -0.065829   -0.163704    0.941025
     14          1           0       -3.724910   -2.133235   -0.921132
 ---------------------------------------------------------------------
                    Distance matrix (angstroms):
                    1          2          3          4          5
     1  Pt   0.000000
     2  Cl   2.280000   0.000000
     3  O    1.950000   3.000150   0.000000
     4  H    2.443788   3.423488   0.960000   0.000000
     5  H    2.443788   2.711673   0.960000   1.567673   0.000000
     6  N    1.990000   3.700770   2.786144   2.569126   3.575493
     7  H    2.507343   4.484990   3.424685   3.295146   4.293017
     8  H    2.507343   3.698449   3.481388   3.192512   4.133209
     9  Cl   2.280000   3.224407   4.230000   4.639149   4.639149
    10  N    1.990000   3.700770   2.786144   3.575493   3.226770
    11  H    2.507343   4.508829   2.995325   3.646172   3.623523
    12  H    2.507343   3.745531   2.759374   3.671274   2.947362
    13  H    2.507343   4.068591   2.533628   2.014159   3.354425
    14  H    2.507343   3.998570   3.698876   4.471326   4.079264
                    6          7          8          9         10
     6  N    0.000000
     7  H    1.000000   0.000000
     8  H    1.000000   1.632993   0.000000
     9  Cl   3.026301   3.093309   3.018393   0.000000
    10  N    3.446781   3.458531   4.192774   3.026301   0.000000
    11  H    3.431370   3.231638   4.303950   3.576526   1.000000
    12  H    4.156135   4.301499   4.904375   3.791986   1.000000
    13  H    1.000000   1.632993   1.632993   3.971932   3.882024
    14  H    3.945015   3.844413   4.563535   2.699038   1.000000
                   11         12         13         14
    11  H    0.000000
    12  H    1.632993   0.000000
    13  H    3.755395   4.446969   0.000000
    14  H    1.632993   1.632993   4.553631   0.000000
 Stoichiometry    Cl2H8N2OPt
 Framework group  C1[X(Cl2H8N2OPt)]
 Deg. of freedom    36
 Full point group                 C1      NOp   1
 Largest Abelian subgroup         C1      NOp   1
 Largest concise Abelian subgroup C1      NOp   1
                         Standard orientation:                         
 ---------------------------------------------------------------------
 Center     Atomic      Atomic             Coordinates (Angstroms)
 Number     Number       Type             X           Y           Z
 ---------------------------------------------------------------------
      1         78           0        0.101785   -0.154567    0.008508
      2         17           0        0.563984    2.077898   -0.020997
      3          8           0        2.010930   -0.549253    0.051975
      4          1           0        2.317013   -0.747491   -0.836065
      5          1           0        2.487319    0.211574    0.392264
      6          7           0       -0.066820   -1.158445   -1.701433
      7          1           0       -0.662830   -1.949908   -1.565938
      8          1           0       -0.459338   -0.561484   -2.401124
      9         17           0       -2.130446    0.306912   -0.042314
     10          7           0       -0.133020   -1.099200    1.744203
     11          1           0       -0.040935   -2.084806    1.602426
     12          1           0        0.564706   -0.788672    2.389764
     13          1           0        0.836981   -1.468406   -1.996506
     14          1           0       -1.040825   -0.898812    2.112626
 ---------------------------------------------------------------------
 Rotational constants (GHZ):      1.5723536      1.4017727      1.0904678
 Leave Link  202 at Wed Dec 23 10:08:52 2020, MaxMem=  4026531840 cpu:         0.0
 (Enter /home/scicons/Gaussian09D/Gaussian09.D01/l301.exe)
 Standard basis: def2TZVP (5D, 7F)
 Ernie: Thresh=  0.10000D-02 Tol=  0.10000D-05 Strict=F.
 There are   286 symmetry adapted cartesian basis functions of A   symmetry.
 There are   255 symmetry adapted basis functions of A   symmetry.
   255 basis functions,   430 primitive gaussians,   286 cartesian basis functions
    41 alpha electrons       41 beta electrons
       nuclear repulsion energy       566.1200353303 Hartrees.
 IExCor=  402 DFT=T Ex+Corr=B3LYP ExCW=0 ScaHFX=  0.200000
 ScaDFX=  0.800000  0.720000  1.000000  0.810000 ScalE2=  1.000000  1.000000
 IRadAn=      0 IRanWt=     -1 IRanGd=            0 ICorTp=0 IEmpDi=141
 NAtoms=   14 NActive=   14 NUniq=   14 SFac= 1.00D+00 NAtFMM=   60 NAOKFM=F Big=F
 Integral buffers will be    131072 words long.
 Raffenetti 2 integral format.
 Two-electron integral symmetry is turned on.
 R6Disp:  Grimme-D3(BJ) Dispersion energy=       -0.0299267781 Hartrees.
 Nuclear repulsion after empirical dispersion term =      566.0901085522 Hartrees.
 Force inversion solution in PCM.
 ------------------------------------------------------------------------------
 Polarizable Continuum Model (PCM)
 =================================
 Model                : PCM (using non-symmetric T matrix).
 Atomic radii         : SMD-Coulomb.
 Polarization charges : Total charges.
 Charge compensation  : None.
 Solution method      : Matrix inversion.
 Cavity type          : VdW (van der Waals Surface) (Alpha=1.000).
 Cavity algorithm     : GePol (No added spheres)
                        Default sphere list used, NSphG=   14.
                        Lebedev-Laikov grids with approx.  5.0 points / Ang**2.
                        Smoothing algorithm: Karplus/York (Gamma=1.0000).
                        Polarization charges: spherical gaussians, with
                                              point-specific exponents (IZeta= 3).
                        Self-potential: point-specific (ISelfS= 7).
                        Self-field    : sphere-specific E.n sum rule (ISelfD= 2).
 1st derivatives      : Analytical E(r).r(x)/FMM algorithm (CHGder, D1EAlg=3).
                        Cavity 1st derivative terms included.
 2nd derivatives      : Analytical E(r).r(xy)/FMM algorithm (CHGder, D2EAlg=3).
                        Cavity 2nd derivative terms included.
 Solvent              : Water, Eps=  78.355300 Eps(inf)=   1.777849
 ------------------------------------------------------------------------------
 Spheres list:
 ISph  on   Nord     Re0    Alpha      Xe            Ye            Ze
    1  Pt      1    1.7500  1.000      0.101785     -0.154567      0.008508
    2  Cl      2    2.3800  1.000      0.563984      2.077898     -0.020997
    3   O      3    1.5200  1.000      2.010930     -0.549253      0.051975
    4   H      4    1.2000  1.000      2.317013     -0.747491     -0.836065
    5   H      5    1.2000  1.000      2.487319      0.211574      0.392264
    6   N      6    1.8900  1.000     -0.066820     -1.158445     -1.701433
    7   H      7    1.2000  1.000     -0.662830     -1.949908     -1.565938
    8   H      8    1.2000  1.000     -0.459338     -0.561484     -2.401124
    9  Cl      9    2.3800  1.000     -2.130446      0.306912     -0.042314
   10   N     10    1.8900  1.000     -0.133020     -1.099200      1.744203
   11   H     11    1.2000  1.000     -0.040935     -2.084806      1.602426
   12   H     12    1.2000  1.000      0.564706     -0.788672      2.389764
   13   H     13    1.2000  1.000      0.836981     -1.468406     -1.996506
   14   H     14    1.2000  1.000     -1.040825     -0.898812      2.112626
 ------------------------------------------------------------------------------
 GePol: Number of generator spheres                  =      14
 GePol: Total number of spheres                      =      14
 GePol: Number of exposed spheres                    =      14 (100.00%)
 GePol: Number of points                             =    1355
 GePol: Average weight of points                     =       0.13
 GePol: Minimum weight of points                     =   0.15D-08
 GePol: Maximum weight of points                     =    0.21991
 GePol: Number of points with low weight             =      55
 GePol: Fraction of low-weight points (<1% of avg)   =       4.06%
 GePol: Cavity surface area                          =    181.342 Ang**2
 GePol: Cavity volume                                =    168.874 Ang**3
 ------------------------------------------------------------------------------
 Atomic radii for non-electrostatic terms: SMD-CDS.
 ------------------------------------------------------------------------------
 PCM non-electrostatic energy =         0.0087376799 Hartrees.
 Nuclear repulsion after PCM non-electrostatic terms =      566.0988462321 Hartrees.
 Leave Link  301 at Wed Dec 23 10:08:52 2020, MaxMem=  4026531840 cpu:         1.3
 (Enter /home/scicons/Gaussian09D/Gaussian09.D01/l302.exe)
 NPDir=0 NMtPBC=     1 NCelOv=     1 NCel=       1 NClECP=     1 NCelD=      1
         NCelK=      1 NCelE2=     1 NClLst=     1 CellRange=     0.0.
 One-electron integrals computed using PRISM.
   1 Symmetry operations used in ECPInt.
 ECPInt:  NShTT=    5565 NPrTT=   17197 LenC2=    5421 LenP2D=   13023.
 LDataN:  DoStor=T MaxTD1= 8 Len=  415
 NBasis=   255 RedAO= T EigKep=  2.77D-03  NBF=   255
 NBsUse=   255 1.00D-06 EigRej= -1.00D+00 NBFU=   255
 Precomputing XC quadrature grid using
 IXCGrd= 4 IRadAn=           0 IRanWt=          -1 IRanGd=           0 AccXCQ= 0.00D+00.
 Defaulting to unpruned grid for atomic number  78.
 Generated NRdTot=       0 NPtTot=           0 NUsed=           0 NTot=          32
 NSgBfM=   284   284   284   284   284 MxSgAt=    14 MxSgA2=    14.
 Leave Link  302 at Wed Dec 23 10:08:53 2020, MaxMem=  4026531840 cpu:         7.6
 (Enter /home/scicons/Gaussian09D/Gaussian09.D01/l303.exe)
 DipDrv:  MaxL=1.
 Leave Link  303 at Wed Dec 23 10:08:54 2020, MaxMem=  4026531840 cpu:         0.9
 (Enter /home/scicons/Gaussian09D/Gaussian09.D01/l401.exe)
 ExpMin= 4.92D-02 ExpMax= 6.95D+04 ExpMxC= 2.37D+03 IAcc=2 IRadAn=         4 AccDes= 0.00D+00
 Harris functional with IExCor=  402 and IRadAn=       4 diagonalized for initial guess.
 HarFok:  IExCor=  402 AccDes= 0.00D+00 IRadAn=         4 IDoV= 1 UseB2=F ITyADJ=14
 ICtDFT=  3500011 ScaDFX=  1.000000  1.000000  1.000000  1.000000
 Defaulting to unpruned grid for atomic number  78.
 Defaulting to unpruned grid for atomic number  78.
 Defaulting to unpruned grid for atomic number  78.
 Defaulting to unpruned grid for atomic number  78.
 Defaulting to unpruned grid for atomic number  78.
 Defaulting to unpruned grid for atomic number  78.
 Defaulting to unpruned grid for atomic number  78.
 Defaulting to unpruned grid for atomic number  78.
 Defaulting to unpruned grid for atomic number  78.
 Defaulting to unpruned grid for atomic number  78.
 Defaulting to unpruned grid for atomic number  78.
 Defaulting to unpruned grid for atomic number  78.
 Defaulting to unpruned grid for atomic number  78.
 Defaulting to unpruned grid for atomic number  78.
 Defaulting to unpruned grid for atomic number  78.
 Defaulting to unpruned grid for atomic number  78.
 Defaulting to unpruned grid for atomic number  78.
 Defaulting to unpruned grid for atomic number  78.
 Defaulting to unpruned grid for atomic number  78.
 Defaulting to unpruned grid for atomic number  78.
 Defaulting to unpruned grid for atomic number  78.
 Defaulting to unpruned grid for atomic number  78.
 Defaulting to unpruned grid for atomic number  78.
 Defaulting to unpruned grid for atomic number  78.
 FoFCou: FMM=F IPFlag=           0 FMFlag=      100000 FMFlg1=           0
         NFxFlg=           0 DoJE=T BraDBF=F KetDBF=T FulRan=T
         wScrn=  0.000000 ICntrl=     500 IOpCl=  0 I1Cent=   200000004 NGrid=           0
         NMat0=    1 NMatS0=      1 NMatT0=    0 NMatD0=    1 NMtDS0=    0 NMtDT0=    0
 Petite list used in FoFCou.
 Harris En= -1229.08759645562    
 JPrj=0 DoOrth=F DoCkMO=F.
 Leave Link  401 at Wed Dec 23 10:08:54 2020, MaxMem=  4026531840 cpu:         7.0
 (Enter /home/scicons/Gaussian09D/Gaussian09.D01/l502.exe)
 Closed shell SCF:
 Using DIIS extrapolation, IDIIS=  1040.
 Integral symmetry usage will be decided dynamically.
 Keep R1 ints in memory in canonical form, NReq=544793834.
 IVT=      272906 IEndB=      272906 NGot=  4026531840 MDV=  3493557815
 LenX=  3493557815 LenY=  3493475578
 Requested convergence on RMS density matrix=1.00D-08 within 128 cycles.
 Requested convergence on MAX density matrix=1.00D-06.
 Requested convergence on             energy=1.00D-06.
 No special actions if energy rises.
 FoFCou: FMM=F IPFlag=           0 FMFlag=           0 FMFlg1=           0
         NFxFlg=           0 DoJE=F BraDBF=F KetDBF=F FulRan=T
         wScrn=  0.000000 ICntrl=     600 IOpCl=  0 I1Cent=           0 NGrid=           0
         NMat0=    1 NMatS0=  32640 NMatT0=    0 NMatD0=    1 NMtDS0=    0 NMtDT0=    0
 Symmetry not used in FoFCou.

 Cycle   1  Pass 1  IDiag  1:
 Defaulting to unpruned grid for atomic number  78.
 Defaulting to unpruned grid for atomic number  78.
 Defaulting to unpruned grid for atomic number  78.
 Defaulting to unpruned grid for atomic number  78.
 Defaulting to unpruned grid for atomic number  78.
 Defaulting to unpruned grid for atomic number  78.
 Defaulting to unpruned grid for atomic number  78.
 Defaulting to unpruned grid for atomic number  78.
 Defaulting to unpruned grid for atomic number  78.
 Defaulting to unpruned grid for atomic number  78.
 Defaulting to unpruned grid for atomic number  78.
 Defaulting to unpruned grid for atomic number  78.
 Defaulting to unpruned grid for atomic number  78.
 Defaulting to unpruned grid for atomic number  78.
 Defaulting to unpruned grid for atomic number  78.
 Defaulting to unpruned grid for atomic number  78.
 Defaulting to unpruned grid for atomic number  78.
 Defaulting to unpruned grid for atomic number  78.
 Defaulting to unpruned grid for atomic number  78.
 Defaulting to unpruned grid for atomic number  78.
 Defaulting to unpruned grid for atomic number  78.
 Defaulting to unpruned grid for atomic number  78.
 Defaulting to unpruned grid for atomic number  78.
 Defaulting to unpruned grid for atomic number  78.
 Inv3:  Mode=1 IEnd=     5508075.
 Iteration    1 A*A^-1 deviation from unit magnitude is 3.89D-15 for   1339.
 Iteration    1 A*A^-1 deviation from orthogonality  is 2.37D-15 for    707    130.
 Iteration    1 A^-1*A deviation from unit magnitude is 4.00D-15 for   1320.
 Iteration    1 A^-1*A deviation from orthogonality  is 4.70D-14 for    793    440.
 E= -1229.14998133674    
 DIIS: error= 3.40D-02 at cycle   1 NSaved=   1.
 NSaved= 1 IEnMin= 1 EnMin= -1229.14998133674     IErMin= 1 ErrMin= 3.40D-02
 ErrMax= 3.40D-02  0.00D+00 EMaxC= 1.00D-01 BMatC= 6.49D-01 BMatP= 6.49D-01
 IDIUse=3 WtCom= 6.60D-01 WtEn= 3.40D-01
 Coeff-Com:  0.100D+01
 Coeff-En:   0.100D+01
 Coeff:      0.100D+01
 Gap=     0.330 Goal=   None    Shift=    0.000
 GapD=    0.330 DampG=1.000 DampE=0.250 DampFc=0.2500 IDamp=-1.
 Damping current iteration by 2.50D-01
 RMSDP=5.40D-03 MaxDP=3.51D-01              OVMax= 4.22D-01

 Cycle   2  Pass 1  IDiag  1:
 E= -1229.30320612263     Delta-E=       -0.153224785889 Rises=F Damp=T
 DIIS: error= 1.39D-02 at cycle   2 NSaved=   2.
 NSaved= 2 IEnMin= 2 EnMin= -1229.30320612263     IErMin= 2 ErrMin= 1.39D-02
 ErrMax= 1.39D-02  0.00D+00 EMaxC= 1.00D-01 BMatC= 1.03D-01 BMatP= 6.49D-01
 IDIUse=3 WtCom= 8.61D-01 WtEn= 1.39D-01
 Coeff-Com: -0.512D+00 0.151D+01
 Coeff-En:   0.000D+00 0.100D+01
 Coeff:     -0.441D+00 0.144D+01
 Gap=     0.125 Goal=   None    Shift=    0.000
 RMSDP=1.32D-03 MaxDP=7.14D-02 DE=-1.53D-01 OVMax= 2.86D-01

 Cycle   3  Pass 1  IDiag  1:
 E= -1229.54150056306     Delta-E=       -0.238294440435 Rises=F Damp=F
 DIIS: error= 4.09D-03 at cycle   3 NSaved=   3.
 NSaved= 3 IEnMin= 3 EnMin= -1229.54150056306     IErMin= 3 ErrMin= 4.09D-03
 ErrMax= 4.09D-03  0.00D+00 EMaxC= 1.00D-01 BMatC= 1.13D-02 BMatP= 1.03D-01
 IDIUse=3 WtCom= 9.59D-01 WtEn= 4.09D-02
 Coeff-Com: -0.203D+00 0.515D+00 0.688D+00
 Coeff-En:   0.000D+00 0.000D+00 0.100D+01
 Coeff:     -0.194D+00 0.494D+00 0.701D+00
 Gap=     0.120 Goal=   None    Shift=    0.000
 RMSDP=7.30D-04 MaxDP=2.40D-02 DE=-2.38D-01 OVMax= 3.27D-02

 Cycle   4  Pass 1  IDiag  1:
 E= -1229.54616254643     Delta-E=       -0.004661983365 Rises=F Damp=F
 DIIS: error= 3.40D-03 at cycle   4 NSaved=   4.
 NSaved= 4 IEnMin= 4 EnMin= -1229.54616254643     IErMin= 4 ErrMin= 3.40D-03
 ErrMax= 3.40D-03  0.00D+00 EMaxC= 1.00D-01 BMatC= 6.28D-03 BMatP= 1.13D-02
 IDIUse=3 WtCom= 9.66D-01 WtEn= 3.40D-02
 Coeff-Com: -0.522D-01 0.104D+00 0.435D+00 0.514D+00
 Coeff-En:   0.000D+00 0.000D+00 0.365D+00 0.635D+00
 Coeff:     -0.504D-01 0.100D+00 0.432D+00 0.518D+00
 Gap=     0.120 Goal=   None    Shift=    0.000
 RMSDP=2.87D-04 MaxDP=8.69D-03 DE=-4.66D-03 OVMax= 1.40D-02

 Cycle   5  Pass 1  IDiag  1:
 E= -1229.55119615819     Delta-E=       -0.005033611762 Rises=F Damp=F
 DIIS: error= 4.50D-04 at cycle   5 NSaved=   5.
 NSaved= 5 IEnMin= 5 EnMin= -1229.55119615819     IErMin= 5 ErrMin= 4.50D-04
 ErrMax= 4.50D-04  0.00D+00 EMaxC= 1.00D-01 BMatC= 1.15D-04 BMatP= 6.28D-03
 IDIUse=3 WtCom= 9.95D-01 WtEn= 4.50D-03
 Coeff-Com: -0.190D-01 0.356D-01 0.179D+00 0.231D+00 0.574D+00
 Coeff-En:   0.000D+00 0.000D+00 0.000D+00 0.000D+00 0.100D+01
 Coeff:     -0.189D-01 0.355D-01 0.178D+00 0.229D+00 0.576D+00
 Gap=     0.119 Goal=   None    Shift=    0.000
 RMSDP=5.81D-05 MaxDP=2.91D-03 DE=-5.03D-03 OVMax= 3.26D-03

 Cycle   6  Pass 1  IDiag  1:
 E= -1229.55128335760     Delta-E=       -0.000087199413 Rises=F Damp=F
 DIIS: error= 1.68D-04 at cycle   6 NSaved=   6.
 NSaved= 6 IEnMin= 6 EnMin= -1229.55128335760     IErMin= 6 ErrMin= 1.68D-04
 ErrMax= 1.68D-04  0.00D+00 EMaxC= 1.00D-01 BMatC= 1.94D-05 BMatP= 1.15D-04
 IDIUse=3 WtCom= 9.98D-01 WtEn= 1.68D-03
 Coeff-Com: -0.727D-03-0.122D-02 0.239D-01 0.349D-01 0.294D+00 0.649D+00
 Coeff-En:   0.000D+00 0.000D+00 0.000D+00 0.000D+00 0.913D-01 0.909D+00
 Coeff:     -0.726D-03-0.121D-02 0.238D-01 0.349D-01 0.294D+00 0.650D+00
 Gap=     0.120 Goal=   None    Shift=    0.000
 RMSDP=1.50D-05 MaxDP=8.47D-04 DE=-8.72D-05 OVMax= 1.08D-03

 Cycle   7  Pass 1  IDiag  1:
 E= -1229.55129710698     Delta-E=       -0.000013749379 Rises=F Damp=F
 DIIS: error= 3.79D-05 at cycle   7 NSaved=   7.
 NSaved= 7 IEnMin= 7 EnMin= -1229.55129710698     IErMin= 7 ErrMin= 3.79D-05
 ErrMax= 3.79D-05  0.00D+00 EMaxC= 1.00D-01 BMatC= 3.34D-07 BMatP= 1.94D-05
 IDIUse=1 WtCom= 1.00D+00 WtEn= 0.00D+00
 Coeff-Com:  0.251D-03-0.109D-02 0.293D-02 0.460D-02 0.815D-01 0.200D+00
 Coeff-Com:  0.712D+00
 Coeff:      0.251D-03-0.109D-02 0.293D-02 0.460D-02 0.815D-01 0.200D+00
 Coeff:      0.712D+00
 Gap=     0.120 Goal=   None    Shift=    0.000
 RMSDP=3.14D-06 MaxDP=1.36D-04 DE=-1.37D-05 OVMax= 1.87D-04

 Cycle   8  Pass 1  IDiag  1:
 E= -1229.55129725086     Delta-E=       -0.000000143883 Rises=F Damp=F
 DIIS: error= 3.30D-05 at cycle   8 NSaved=   8.
 NSaved= 8 IEnMin= 8 EnMin= -1229.55129725086     IErMin= 8 ErrMin= 3.30D-05
 ErrMax= 3.30D-05  0.00D+00 EMaxC= 1.00D-01 BMatC= 1.89D-07 BMatP= 3.34D-07
 IDIUse=1 WtCom= 1.00D+00 WtEn= 0.00D+00
 Coeff-Com:  0.316D-03-0.410D-03-0.309D-02-0.446D-02-0.730D-02-0.801D-02
 Coeff-Com:  0.444D+00 0.579D+00
 Coeff:      0.316D-03-0.410D-03-0.309D-02-0.446D-02-0.730D-02-0.801D-02
 Coeff:      0.444D+00 0.579D+00
 Gap=     0.120 Goal=   None    Shift=    0.000
 RMSDP=1.37D-06 MaxDP=4.83D-05 DE=-1.44D-07 OVMax= 7.34D-05

 Cycle   9  Pass 1  IDiag  1:
 E= -1229.55129738217     Delta-E=       -0.000000131309 Rises=F Damp=F
 DIIS: error= 1.66D-06 at cycle   9 NSaved=   9.
 NSaved= 9 IEnMin= 9 EnMin= -1229.55129738217     IErMin= 9 ErrMin= 1.66D-06
 ErrMax= 1.66D-06  0.00D+00 EMaxC= 1.00D-01 BMatC= 2.54D-09 BMatP= 1.89D-07
 IDIUse=1 WtCom= 1.00D+00 WtEn= 0.00D+00
 Coeff-Com:  0.102D-03-0.108D-03-0.130D-02-0.193D-02-0.582D-02-0.106D-01
 Coeff-Com:  0.155D+00 0.223D+00 0.641D+00
 Coeff:      0.102D-03-0.108D-03-0.130D-02-0.193D-02-0.582D-02-0.106D-01
 Coeff:      0.155D+00 0.223D+00 0.641D+00
 Gap=     0.120 Goal=   None    Shift=    0.000
 RMSDP=2.99D-07 MaxDP=1.38D-05 DE=-1.31D-07 OVMax= 3.14D-05

 Cycle  10  Pass 1  IDiag  1:
 E= -1229.55129738452     Delta-E=       -0.000000002348 Rises=F Damp=F
 DIIS: error= 6.62D-07 at cycle  10 NSaved=  10.
 NSaved=10 IEnMin=10 EnMin= -1229.55129738452     IErMin=10 ErrMin= 6.62D-07
 ErrMax= 6.62D-07  0.00D+00 EMaxC= 1.00D-01 BMatC= 3.00D-10 BMatP= 2.54D-09
 IDIUse=1 WtCom= 1.00D+00 WtEn= 0.00D+00
 Coeff-Com: -0.266D-05 0.123D-04-0.161D-03-0.256D-03-0.145D-02-0.272D-02
 Coeff-Com:  0.101D-01 0.148D-01 0.251D+00 0.729D+00
 Coeff:     -0.266D-05 0.123D-04-0.161D-03-0.256D-03-0.145D-02-0.272D-02
 Coeff:      0.101D-01 0.148D-01 0.251D+00 0.729D+00
 Gap=     0.120 Goal=   None    Shift=    0.000
 RMSDP=1.38D-07 MaxDP=5.21D-06 DE=-2.35D-09 OVMax= 1.04D-05

 Cycle  11  Pass 1  IDiag  1:
 E= -1229.55129738485     Delta-E=       -0.000000000333 Rises=F Damp=F
 DIIS: error= 1.43D-07 at cycle  11 NSaved=  11.
 NSaved=11 IEnMin=11 EnMin= -1229.55129738485     IErMin=11 ErrMin= 1.43D-07
 ErrMax= 1.43D-07  0.00D+00 EMaxC= 1.00D-01 BMatC= 1.98D-11 BMatP= 3.00D-10
 IDIUse=1 WtCom= 1.00D+00 WtEn= 0.00D+00
 Coeff-Com: -0.909D-05 0.126D-04 0.583D-04 0.823D-04-0.432D-04 0.687D-04
 Coeff-Com: -0.111D-01-0.167D-01 0.266D-01 0.236D+00 0.765D+00
 Coeff:     -0.909D-05 0.126D-04 0.583D-04 0.823D-04-0.432D-04 0.687D-04
 Coeff:     -0.111D-01-0.167D-01 0.266D-01 0.236D+00 0.765D+00
 Gap=     0.120 Goal=   None    Shift=    0.000
 RMSDP=4.29D-08 MaxDP=1.71D-06 DE=-3.33D-10 OVMax= 5.03D-06

 Cycle  12  Pass 1  IDiag  1:
 E= -1229.55129738490     Delta-E=       -0.000000000048 Rises=F Damp=F
 DIIS: error= 6.53D-08 at cycle  12 NSaved=  12.
 NSaved=12 IEnMin=12 EnMin= -1229.55129738490     IErMin=12 ErrMin= 6.53D-08
 ErrMax= 6.53D-08  0.00D+00 EMaxC= 1.00D-01 BMatC= 2.35D-12 BMatP= 1.98D-11
 IDIUse=1 WtCom= 1.00D+00 WtEn= 0.00D+00
 Coeff-Com: -0.827D-06 0.522D-06 0.329D-04 0.479D-04 0.926D-04 0.226D-03
 Coeff-Com: -0.353D-02-0.550D-02-0.158D-01-0.859D-02 0.214D+00 0.819D+00
 Coeff:     -0.827D-06 0.522D-06 0.329D-04 0.479D-04 0.926D-04 0.226D-03
 Coeff:     -0.353D-02-0.550D-02-0.158D-01-0.859D-02 0.214D+00 0.819D+00
 Gap=     0.120 Goal=   None    Shift=    0.000
 RMSDP=1.42D-08 MaxDP=6.75D-07 DE=-4.82D-11 OVMax= 1.95D-06

 Cycle  13  Pass 1  IDiag  1:
 E= -1229.55129738489     Delta-E=        0.000000000011 Rises=F Damp=F
 DIIS: error= 2.52D-08 at cycle  13 NSaved=  13.
 NSaved=13 IEnMin=12 EnMin= -1229.55129738490     IErMin=13 ErrMin= 2.52D-08
 ErrMax= 2.52D-08  0.00D+00 EMaxC= 1.00D-01 BMatC= 2.90D-13 BMatP= 2.35D-12
 IDIUse=1 WtCom= 1.00D+00 WtEn= 0.00D+00
 Coeff-Com:  0.789D-06-0.134D-05 0.629D-05 0.104D-04 0.436D-04 0.108D-03
 Coeff-Com: -0.247D-03-0.477D-03-0.830D-02-0.283D-01 0.268D-02 0.299D+00
 Coeff-Com:  0.735D+00
 Coeff:      0.789D-06-0.134D-05 0.629D-05 0.104D-04 0.436D-04 0.108D-03
 Coeff:     -0.247D-03-0.477D-03-0.830D-02-0.283D-01 0.268D-02 0.299D+00
 Coeff:      0.735D+00
 Gap=     0.120 Goal=   None    Shift=    0.000
 RMSDP=4.28D-09 MaxDP=1.96D-07 DE= 1.09D-11 OVMax= 5.20D-07

 Error on total polarization charges =  0.02132
 SCF Done:  E(RB3LYP) =  -1229.55129738     A.U. after   13 cycles
            NFock= 13  Conv=0.43D-08     -V/T= 2.0698
 KE= 1.149367491040D+03 PE=-4.018231793145D+03 EE= 1.073214158488D+03
 SMD-CDS (non-electrostatic) energy       (kcal/mol) =       5.48
 (included in total energy above)
 Leave Link  502 at Wed Dec 23 10:09:15 2020, MaxMem=  4026531840 cpu:       209.4
 (Enter /home/scicons/Gaussian09D/Gaussian09.D01/l801.exe)
 DoSCS=F DFT=T ScalE2(SS,OS)=  1.000000  1.000000
 Range of M.O.s used for correlation:     1   255
 NBasis=   255 NAE=    41 NBE=    41 NFC=     0 NFV=     0
 NROrb=    255 NOA=    41 NOB=    41 NVA=   214 NVB=   214
 Leave Link  801 at Wed Dec 23 10:09:16 2020, MaxMem=  4026531840 cpu:         0.6
 (Enter /home/scicons/Gaussian09D/Gaussian09.D01/l1101.exe)
 Using compressed storage, NAtomX=    14.
 Will process     15 centers per pass.
   1 Symmetry operations used in ECPInt.
 ECPInt:  NShTT=    5565 NPrTT=   17197 LenC2=    5421 LenP2D=   13023.
 LDataN:  DoStor=T MaxTD1= 9 Len=  602
 R6Disp: Adding Grimme-D3(BJ) dispersion energy 1st derivatives to the gradient.
 Leave Link 1101 at Wed Dec 23 10:09:18 2020, MaxMem=  4026531840 cpu:        25.2
 (Enter /home/scicons/Gaussian09D/Gaussian09.D01/l1102.exe)
 Symmetrizing basis deriv contribution to polar:
 IMax=3 JMax=2 DiffMx= 0.00D+00
 Leave Link 1102 at Wed Dec 23 10:09:18 2020, MaxMem=  4026531840 cpu:         0.9
 (Enter /home/scicons/Gaussian09D/Gaussian09.D01/l1110.exe)
 Forming Gx(P) for the SCF density, NAtomX=    14.
 Integral derivatives from FoFJK, PRISM(SPDF).
 Do as many integral derivatives as possible in FoFJK.
 G2DrvN: MDV=    4026531624.
 G2DrvN: will do    15 centers at a time, making    1 passes.
 Calling FoFCou, ICntrl=  3107 FMM=F I1Cent=   0 AccDes= 0.00D+00.
 FoFJK:  IHMeth= 1 ICntrl=    3107 DoSepK=F KAlg= 0 I1Cent=   0 FoldK=F
 IRaf=         0 NMat=   1 IRICut=       1 DoRegI=T DoRafI=F ISym2E= 0.
 FoFCou: FMM=F IPFlag=           0 FMFlag=      100000 FMFlg1=           0
         NFxFlg=           0 DoJE=F BraDBF=F KetDBF=F FulRan=T
         wScrn=  0.000000 ICntrl=    3107 IOpCl=  0 I1Cent=           0 NGrid=           0
         NMat0=    1 NMatS0=      1 NMatT0=    0 NMatD0=    1 NMtDS0=    0 NMtDT0=    0
 Symmetry not used in FoFCou.
 Defaulting to unpruned grid for atomic number  78.
 Defaulting to unpruned grid for atomic number  78.
 Defaulting to unpruned grid for atomic number  78.
 Defaulting to unpruned grid for atomic number  78.
 Defaulting to unpruned grid for atomic number  78.
 Defaulting to unpruned grid for atomic number  78.
 Defaulting to unpruned grid for atomic number  78.
 Defaulting to unpruned grid for atomic number  78.
 Defaulting to unpruned grid for atomic number  78.
 Defaulting to unpruned grid for atomic number  78.
 Defaulting to unpruned grid for atomic number  78.
 Defaulting to unpruned grid for atomic number  78.
 Defaulting to unpruned grid for atomic number  78.
 Defaulting to unpruned grid for atomic number  78.
 Defaulting to unpruned grid for atomic number  78.
 Defaulting to unpruned grid for atomic number  78.
 Defaulting to unpruned grid for atomic number  78.
 Defaulting to unpruned grid for atomic number  78.
 Defaulting to unpruned grid for atomic number  78.
 Defaulting to unpruned grid for atomic number  78.
 Defaulting to unpruned grid for atomic number  78.
 Defaulting to unpruned grid for atomic number  78.
 Defaulting to unpruned grid for atomic number  78.
 Defaulting to unpruned grid for atomic number  78.
 NEqPCM:  Using equilibrium solvation (IEInf=0, Eps=  78.3553, EpsInf=   1.7778)
 G2PCM: DoFxE=T DoFxN=T DoGrad=T DoDP/DQ/DG/TGxP=FFFF NFrqRd=   0 IEInf=0 SqF1=F DoCFld=F IF1Alg=4.
 GePol: Maximum number of non-zero 1st derivatives   =     355
 End of G2Drv F.D. properties file   721 does not exist.
 End of G2Drv F.D. properties file   722 does not exist.
 End of G2Drv F.D. properties file   788 does not exist.
 Leave Link 1110 at Wed Dec 23 10:09:33 2020, MaxMem=  4026531840 cpu:       340.0
 (Enter /home/scicons/Gaussian09D/Gaussian09.D01/l1002.exe)
 Minotr:  Closed shell wavefunction.
          IDoAtm=11111111111111
 NEqPCM:  Using equilibrium solvation (IEInf=0, Eps=  78.3553, EpsInf=   1.7778)
          Direct CPHF calculation.
          Differentiating once with respect to electric field.
                with respect to dipole field.
          Differentiating once with respect to nuclear coordinates.
          Requested convergence is 1.0D-08 RMS, and 1.0D-07 maximum.
          Secondary convergence is 1.0D-12 RMS, and 1.0D-12 maximum.
          NewPWx=T KeepS1=F KeepF1=F KeepIn=T MapXYZ=F SortEE=F KeepMc=T.
          MDV=    4026531441 using IRadAn=       2.
 Defaulting to unpruned grid for atomic number  78.
 Generate precomputed XC quadrature information.
 Keep R1 ints in memory in canonical form, NReq=544526104.
 FoFCou: FMM=F IPFlag=           0 FMFlag=           0 FMFlg1=           0
         NFxFlg=           0 DoJE=F BraDBF=F KetDBF=F FulRan=T
         wScrn=  0.000000 ICntrl=     600 IOpCl=  0 I1Cent=           0 NGrid=           0
         NMat0=    1 NMatS0=  32640 NMatT0=    0 NMatD0=    1 NMtDS0=    0 NMtDT0=    0
 Symmetry not used in FoFCou.
          Solving linear equations simultaneously, MaxMat=       0.
 Defaulting to unpruned grid for atomic number  78.
 Defaulting to unpruned grid for atomic number  78.
 Defaulting to unpruned grid for atomic number  78.
 Defaulting to unpruned grid for atomic number  78.
 Defaulting to unpruned grid for atomic number  78.
 Defaulting to unpruned grid for atomic number  78.
 Defaulting to unpruned grid for atomic number  78.
 Defaulting to unpruned grid for atomic number  78.
 Defaulting to unpruned grid for atomic number  78.
 Defaulting to unpruned grid for atomic number  78.
 Defaulting to unpruned grid for atomic number  78.
 Defaulting to unpruned grid for atomic number  78.
 Defaulting to unpruned grid for atomic number  78.
 Defaulting to unpruned grid for atomic number  78.
 Defaulting to unpruned grid for atomic number  78.
 Defaulting to unpruned grid for atomic number  78.
 Defaulting to unpruned grid for atomic number  78.
 Defaulting to unpruned grid for atomic number  78.
 Defaulting to unpruned grid for atomic number  78.
 Defaulting to unpruned grid for atomic number  78.
 Defaulting to unpruned grid for atomic number  78.
 Defaulting to unpruned grid for atomic number  78.
 Defaulting to unpruned grid for atomic number  78.
 Defaulting to unpruned grid for atomic number  78.
          There are    45 degrees of freedom in the 1st order CPHF.  IDoFFX=6 NUNeed=     3.
     42 vectors produced by pass  0 Test12= 1.95D-14 2.22D-09 XBig12= 8.39D+01 4.51D+00.
 AX will form    42 AO Fock derivatives at one time.
     42 vectors produced by pass  1 Test12= 1.95D-14 2.22D-09 XBig12= 1.31D+01 6.65D-01.
     42 vectors produced by pass  2 Test12= 1.95D-14 2.22D-09 XBig12= 3.45D-01 1.04D-01.
     42 vectors produced by pass  3 Test12= 1.95D-14 2.22D-09 XBig12= 3.09D-03 1.02D-02.
     42 vectors produced by pass  4 Test12= 1.95D-14 2.22D-09 XBig12= 1.91D-05 7.39D-04.
     41 vectors produced by pass  5 Test12= 1.95D-14 2.22D-09 XBig12= 1.04D-07 4.87D-05.
     15 vectors produced by pass  6 Test12= 1.95D-14 2.22D-09 XBig12= 2.15D-10 3.02D-06.
      3 vectors produced by pass  7 Test12= 1.95D-14 2.22D-09 XBig12= 3.15D-13 7.44D-08.
      2 vectors produced by pass  8 Test12= 1.95D-14 2.22D-09 XBig12= 5.94D-16 3.72D-09.
 InvSVY:  IOpt=1 It=  1 EMax= 7.11D-15
 Solved reduced A of dimension   271 with    45 vectors.
 FullF1:  Do perturbations    1 to     3.
 Isotropic polarizability for W=    0.000000      120.15 Bohr**3.
 End of Minotr F.D. properties file   721 does not exist.
 End of Minotr F.D. properties file   722 does not exist.
 End of Minotr F.D. properties file   788 does not exist.
 Leave Link 1002 at Wed Dec 23 10:09:57 2020, MaxMem=  4026531840 cpu:       564.5
 (Enter /home/scicons/Gaussian09D/Gaussian09.D01/l601.exe)
 Copying SCF densities to generalized density rwf, IOpCl= 0 IROHF=0.

 **********************************************************************

            Population analysis using the SCF density.

 **********************************************************************

 Orbital symmetries:
       Occupied  (A) (A) (A) (A) (A) (A) (A) (A) (A) (A) (A) (A)
                 (A) (A) (A) (A) (A) (A) (A) (A) (A) (A) (A) (A)
                 (A) (A) (A) (A) (A) (A) (A) (A) (A) (A) (A) (A)
                 (A) (A) (A) (A) (A)
       Virtual   (A) (A) (A) (A) (A) (A) (A) (A) (A) (A) (A) (A)
                 (A) (A) (A) (A) (A) (A) (A) (A) (A) (A) (A) (A)
                 (A) (A) (A) (A) (A) (A) (A) (A) (A) (A) (A) (A)
                 (A) (A) (A) (A) (A) (A) (A) (A) (A) (A) (A) (A)
                 (A) (A) (A) (A) (A) (A) (A) (A) (A) (A) (A) (A)
                 (A) (A) (A) (A) (A) (A) (A) (A) (A) (A) (A) (A)
                 (A) (A) (A) (A) (A) (A) (A) (A) (A) (A) (A) (A)
                 (A) (A) (A) (A) (A) (A) (A) (A) (A) (A) (A) (A)
                 (A) (A) (A) (A) (A) (A) (A) (A) (A) (A) (A) (A)
                 (A) (A) (A) (A) (A) (A) (A) (A) (A) (A) (A) (A)
                 (A) (A) (A) (A) (A) (A) (A) (A) (A) (A) (A) (A)
                 (A) (A) (A) (A) (A) (A) (A) (A) (A) (A) (A) (A)
                 (A) (A) (A) (A) (A) (A) (A) (A) (A) (A) (A) (A)
                 (A) (A) (A) (A) (A) (A) (A) (A) (A) (A) (A) (A)
                 (A) (A) (A) (A) (A) (A) (A) (A) (A) (A) (A) (A)
                 (A) (A) (A) (A) (A) (A) (A) (A) (A) (A) (A) (A)
                 (A) (A) (A) (A) (A) (A) (A) (A) (A) (A) (A) (A)
                 (A) (A) (A) (A) (A) (A) (A) (A) (A) (A)
 The electronic state is 1-A.
 Alpha  occ. eigenvalues -- -101.45479-101.41879 -19.19510 -14.33114 -14.32665
 Alpha  occ. eigenvalues --   -9.38759  -9.35200  -7.14678  -7.14181  -7.14153
 Alpha  occ. eigenvalues --   -7.10971  -7.10705  -7.10654  -3.90235  -2.17235
 Alpha  occ. eigenvalues --   -2.13793  -2.13020  -1.08233  -0.89895  -0.89281
 Alpha  occ. eigenvalues --   -0.75246  -0.71948  -0.60358  -0.51840  -0.51026
 Alpha  occ. eigenvalues --   -0.50854  -0.50111  -0.49681  -0.41995  -0.41380
 Alpha  occ. eigenvalues --   -0.39155  -0.33358  -0.32568  -0.31194  -0.30148
 Alpha  occ. eigenvalues --   -0.26448  -0.24518  -0.22742  -0.21112  -0.15882
 Alpha  occ. eigenvalues --   -0.13812
 Alpha virt. eigenvalues --   -0.01844   0.00561   0.05111   0.06196   0.08725
 Alpha virt. eigenvalues --    0.10378   0.12062   0.12254   0.13359   0.15344
 Alpha virt. eigenvalues --    0.17001   0.17988   0.19734   0.21311   0.25878
 Alpha virt. eigenvalues --    0.28991   0.29175   0.29802   0.30742   0.32587
 Alpha virt. eigenvalues --    0.33483   0.35356   0.36287   0.37486   0.37833
 Alpha virt. eigenvalues --    0.38260   0.39173   0.40241   0.42080   0.43688
 Alpha virt. eigenvalues --    0.43954   0.45222   0.46720   0.47186   0.49205
 Alpha virt. eigenvalues --    0.49425   0.50983   0.51728   0.52601   0.53329
 Alpha virt. eigenvalues --    0.53962   0.55282   0.55632   0.57748   0.57979
 Alpha virt. eigenvalues --    0.60767   0.63135   0.64785   0.66533   0.68820
 Alpha virt. eigenvalues --    0.70195   0.72166   0.73673   0.77264   0.79323
 Alpha virt. eigenvalues --    0.86898   0.93848   0.95428   0.98818   1.02594
 Alpha virt. eigenvalues --    1.03767   1.10670   1.13108   1.16719   1.20731
 Alpha virt. eigenvalues --    1.23063   1.23964   1.24569   1.26974   1.28046
 Alpha virt. eigenvalues --    1.32292   1.37281   1.41687   1.43237   1.44055
 Alpha virt. eigenvalues --    1.45998   1.48276   1.50609   1.52964   1.54806
 Alpha virt. eigenvalues --    1.55951   1.58027   1.58887   1.60443   1.63238
 Alpha virt. eigenvalues --    1.65692   1.68938   1.71679   1.75617   1.78857
 Alpha virt. eigenvalues --    1.79940   1.80993   1.81679   1.82371   1.82918
 Alpha virt. eigenvalues --    1.83285   1.85284   1.86716   1.89660   1.91804
 Alpha virt. eigenvalues --    1.93081   1.94262   1.97101   1.97791   1.98945
 Alpha virt. eigenvalues --    2.00315   2.11610   2.11954   2.13113   2.13828
 Alpha virt. eigenvalues --    2.14377   2.14505   2.15545   2.15828   2.16441
 Alpha virt. eigenvalues --    2.16605   2.16887   2.18998   2.19610   2.21224
 Alpha virt. eigenvalues --    2.22809   2.24907   2.26679   2.28708   2.29541
 Alpha virt. eigenvalues --    2.30879   2.31666   2.32834   2.33462   2.35821
 Alpha virt. eigenvalues --    2.37719   2.39386   2.40329   2.45985   2.48112
 Alpha virt. eigenvalues --    2.49514   2.50414   2.51587   2.54309   2.54882
 Alpha virt. eigenvalues --    2.56227   2.57871   2.61250   2.62809   2.64530
 Alpha virt. eigenvalues --    2.67653   2.69061   2.71319   2.84258   2.93594
 Alpha virt. eigenvalues --    2.94820   3.06007   3.09090   3.19741   3.20525
 Alpha virt. eigenvalues --    3.21423   3.24604   3.26191   3.27058   3.43351
 Alpha virt. eigenvalues --    3.66852   3.94349   4.14993   4.22912   4.32594
 Alpha virt. eigenvalues --    4.33265   4.35471   4.36529   4.42964   4.43391
 Alpha virt. eigenvalues --    4.63591   4.67406   4.69523   4.74123   4.87195
 Alpha virt. eigenvalues --    4.88387   4.89125   4.90128   5.04466   5.06619
 Alpha virt. eigenvalues --    5.10422   5.19990   5.33883   5.36183   5.37275
 Alpha virt. eigenvalues --    5.38306   5.38828   5.39060   5.46901   5.82637
 Alpha virt. eigenvalues --    5.83449   5.95115   6.22329   6.40960   6.43438
 Alpha virt. eigenvalues --    6.62655   6.92581   6.97379  10.76512  10.77040
 Alpha virt. eigenvalues --   10.80713  10.82540  10.95668  10.99846  24.84137
 Alpha virt. eigenvalues --   25.13512  31.45215  31.52257  31.78128  31.98241
 Alpha virt. eigenvalues --   32.47025  43.41998  52.01050 282.33690
          Condensed to atoms (all electrons):
               1          2          3          4          5          6
     1  Pt  17.680914   0.008741   0.082563  -0.031975  -0.028638  -0.079470
     2  Cl   0.008741  17.854760  -0.027747  -0.000747   0.017956  -0.046614
     3  O    0.082563  -0.027747   7.855215   0.316710   0.306016  -0.006860
     4  H   -0.031975  -0.000747   0.316710   0.320262  -0.016246  -0.001299
     5  H   -0.028638   0.017956   0.306016  -0.016246   0.321321   0.001512
     6  N   -0.079470  -0.046614  -0.006860  -0.001299   0.001512   6.793904
     7  H   -0.046382   0.001908  -0.000051  -0.000092   0.000095   0.367314
     8  H   -0.029287  -0.002317   0.000186  -0.000822   0.000120   0.351386
     9  Cl   0.132771  -0.035672  -0.006412   0.000246   0.000427  -0.026535
    10  N   -0.080136  -0.047442  -0.018566   0.000264   0.000306  -0.058600
    11  H   -0.045538   0.001795  -0.000965   0.000036  -0.000238  -0.005865
    12  H   -0.027849  -0.001928   0.002021  -0.000523   0.000766   0.003230
    13  H   -0.028304   0.000119  -0.001386   0.009880  -0.001079   0.348270
    14  H   -0.028744   0.000028   0.000048   0.000138   0.000188   0.002977
               7          8          9         10         11         12
     1  Pt  -0.046382  -0.029287   0.132771  -0.080136  -0.045538  -0.027849
     2  Cl   0.001908  -0.002317  -0.035672  -0.047442   0.001795  -0.001928
     3  O   -0.000051   0.000186  -0.006412  -0.018566  -0.000965   0.002021
     4  H   -0.000092  -0.000822   0.000246   0.000264   0.000036  -0.000523
     5  H    0.000095   0.000120   0.000427   0.000306  -0.000238   0.000766
     6  N    0.367314   0.351386  -0.026535  -0.058600  -0.005865   0.003230
     7  H    0.425009  -0.026689   0.004757  -0.004869   0.002758  -0.000238
     8  H   -0.026689   0.423406   0.007420   0.003854  -0.000240  -0.000058
     9  Cl   0.004757   0.007420  17.455496  -0.033058   0.000515   0.000731
    10  N   -0.004869   0.003854  -0.033058   6.808585   0.372748   0.353757
    11  H    0.002758  -0.000240   0.000515   0.372748   0.426519  -0.026408
    12  H   -0.000238  -0.000058   0.000731   0.353757  -0.026408   0.422859
    13  H   -0.015310  -0.014249   0.001227   0.001876   0.000233  -0.000291
    14  H    0.000048  -0.000376   0.022712   0.337743  -0.018021  -0.014247
              13         14
     1  Pt  -0.028304  -0.028744
     2  Cl   0.000119   0.000028
     3  O   -0.001386   0.000048
     4  H    0.009880   0.000138
     5  H   -0.001079   0.000188
     6  N    0.348270   0.002977
     7  H   -0.015310   0.000048
     8  H   -0.014249  -0.000376
     9  Cl   0.001227   0.022712
    10  N    0.001876   0.337743
    11  H    0.000233  -0.018021
    12  H   -0.000291  -0.014247
    13  H    0.424322  -0.000056
    14  H   -0.000056   0.427509
 Mulliken charges:
               1
     1  Pt   0.521334
     2  Cl  -0.722841
     3  O   -0.500773
     4  H    0.404168
     5  H    0.397494
     6  N   -0.643349
     7  H    0.291741
     8  H    0.287666
     9  Cl  -0.524623
    10  N   -0.636461
    11  H    0.292668
    12  H    0.288178
    13  H    0.274747
    14  H    0.270052
 Sum of Mulliken charges =   0.00000
 Mulliken charges with hydrogens summed into heavy atoms:
               1
     1  Pt   0.521334
     2  Cl  -0.722841
     3  O    0.300888
     6  N    0.210805
     9  Cl  -0.524623
    10  N    0.214437
 APT charges:
               1
     1  Pt   1.327802
     2  Cl  -0.942160
     3  O   -0.651204
     4  H    0.385218
     5  H    0.421369
     6  N   -0.616574
     7  H    0.220002
     8  H    0.216946
     9  Cl  -0.569511
    10  N   -0.635179
    11  H    0.213249
    12  H    0.208876
    13  H    0.188542
    14  H    0.232623
 Sum of APT charges =   0.00000
 APT charges with hydrogens summed into heavy atoms:
               1
     1  Pt   1.327802
     2  Cl  -0.942160
     3  O    0.155383
     6  N    0.008917
     9  Cl  -0.569511
    10  N    0.019570
 Electronic spatial extent (au):  <R**2>=           1239.2648
 Charge=              0.0000 electrons
 Dipole moment (field-independent basis, Debye):
    X=              7.5949    Y=            -12.5273    Z=             -0.9594  Tot=             14.6812
 Quadrupole moment (field-independent basis, Debye-Ang):
   XX=            -66.9351   YY=            -78.9648   ZZ=            -54.3506
   XY=             -2.5189   XZ=             -2.6894   YZ=              2.2450
 Traceless Quadrupole moment (field-independent basis, Debye-Ang):
   XX=             -0.1849   YY=            -12.2146   ZZ=             12.3995
   XY=             -2.5189   XZ=             -2.6894   YZ=              2.2450
 Octapole moment (field-independent basis, Debye-Ang**2):
  XXX=             79.8176  YYY=            -89.6655  ZZZ=             -0.0787  XYY=             -1.5578
  XXY=            -20.4470  XXZ=             -4.4164  XZZ=             12.0126  YZZ=            -29.1910
  YYZ=             -1.7496  XYZ=              5.4531
 Hexadecapole moment (field-independent basis, Debye-Ang**3):
 XXXX=           -607.4554 YYYY=           -640.1478 ZZZZ=           -284.6344 XXXY=             -7.5300
 XXXZ=            -17.3525 YYYX=            -26.3087 YYYZ=              3.2154 ZZZX=             -1.5256
 ZZZY=              1.7625 XXYY=           -213.7250 XXZZ=           -145.8544 YYZZ=           -143.9732
 XXYZ=             13.1795 YYXZ=             -3.4238 ZZXY=             -8.0061
 N-N= 5.660988462321D+02 E-N=-4.018231787804D+03  KE= 1.149367491040D+03
  Exact polarizability: 121.752   1.184 123.529  -0.925   0.444 115.183
 Approx polarizability: 137.221  -1.338 135.736  -0.214   0.453 120.877
 No NMR shielding tensors so no spin-rotation constants.
 Leave Link  601 at Wed Dec 23 10:09:58 2020, MaxMem=  4026531840 cpu:         3.3
 (Enter /home/scicons/Gaussian09D/Gaussian09.D01/l701.exe)
 Compute integral second derivatives.
 ... and contract with generalized density number  0.
 R6Disp: Adding Grimme-D3(BJ) dispersion energy 2nd derivatives to the Hessian.
   1 Symmetry operations used in ECPInt.
 ECPInt:  NShTT=    5565 NPrTT=   17197 LenC2=    5421 LenP2D=   13023.
 LDataN:  DoStor=T MaxTD1=10 Len=  848
 D2PCM: PCM CHGder 2nd derivatives, FixD1E=F FixD2E=F DoIter=F DoCFld=F I1PDM=0
 GePol: Maximum number of non-zero 2nd derivatives   =     355
 Leave Link  701 at Wed Dec 23 10:10:04 2020, MaxMem=  4026531840 cpu:       144.0
 (Enter /home/scicons/Gaussian09D/Gaussian09.D01/l702.exe)
 L702 exits ... SP integral derivatives will be done elsewhere.
 Leave Link  702 at Wed Dec 23 10:10:05 2020, MaxMem=  4026531840 cpu:         0.6
 (Enter /home/scicons/Gaussian09D/Gaussian09.D01/l703.exe)
 Compute integral second derivatives, UseDBF=F ICtDFT=           0.
 Integral derivatives from FoFJK, PRISM(SPDF).
 Calling FoFJK, ICntrl=    100127 FMM=F ISym2X=0 I1Cent= 0 IOpClX= 0 NMat=1 NMatS=1 NMatT=0.
 FoFJK:  IHMeth= 1 ICntrl=  100127 DoSepK=F KAlg= 0 I1Cent=   0 FoldK=F
 IRaf=         0 NMat=   1 IRICut=       1 DoRegI=T DoRafI=F ISym2E= 0.
 FoFCou: FMM=F IPFlag=           0 FMFlag=      100000 FMFlg1=         800
         NFxFlg=           0 DoJE=F BraDBF=F KetDBF=F FulRan=T
         wScrn=  0.000000 ICntrl=  100127 IOpCl=  0 I1Cent=           0 NGrid=           0
         NMat0=    1 NMatS0=      1 NMatT0=    0 NMatD0=    1 NMtDS0=    0 NMtDT0=    0
 Symmetry not used in FoFCou.
 Defaulting to unpruned grid for atomic number  78.
 Defaulting to unpruned grid for atomic number  78.
 Defaulting to unpruned grid for atomic number  78.
 Defaulting to unpruned grid for atomic number  78.
 Defaulting to unpruned grid for atomic number  78.
 Defaulting to unpruned grid for atomic number  78.
 Defaulting to unpruned grid for atomic number  78.
 Defaulting to unpruned grid for atomic number  78.
 Defaulting to unpruned grid for atomic number  78.
 Defaulting to unpruned grid for atomic number  78.
 Defaulting to unpruned grid for atomic number  78.
 Defaulting to unpruned grid for atomic number  78.
 Defaulting to unpruned grid for atomic number  78.
 Defaulting to unpruned grid for atomic number  78.
 Defaulting to unpruned grid for atomic number  78.
 Defaulting to unpruned grid for atomic number  78.
 Defaulting to unpruned grid for atomic number  78.
 Defaulting to unpruned grid for atomic number  78.
 Defaulting to unpruned grid for atomic number  78.
 Defaulting to unpruned grid for atomic number  78.
 Defaulting to unpruned grid for atomic number  78.
 Defaulting to unpruned grid for atomic number  78.
 Defaulting to unpruned grid for atomic number  78.
 Defaulting to unpruned grid for atomic number  78.
 Leave Link  703 at Wed Dec 23 10:10:27 2020, MaxMem=  4026531840 cpu:       530.4
 (Enter /home/scicons/Gaussian09D/Gaussian09.D01/l716.exe)
 Dipole        = 2.98807221D+00-4.92862030D+00-3.77472260D-01
 Polarizability= 1.21751751D+02 1.18404698D+00 1.23528649D+02
                -9.25028906D-01 4.44439238D-01 1.15182745D+02
 ***** Axes restored to original set *****
 -------------------------------------------------------------------
 Center     Atomic                   Forces (Hartrees/Bohr)
 Number     Number              X              Y              Z
 -------------------------------------------------------------------
      1       78          -0.008361408    0.011413821   -0.045759498
      2       17          -0.037308165    0.063754130    0.006654360
      3        8          -0.000017347   -0.016403771    0.038281711
      4        1           0.002381502    0.006157684    0.011542062
      5        1          -0.004457068    0.011231987    0.006656190
      6        7           0.060234250    0.006930032   -0.000976855
      7        1           0.009536140   -0.008274563   -0.003941644
      8        1           0.012183486    0.007945558   -0.004928885
      9       17           0.002571887   -0.004932966   -0.018720027
     10        7          -0.035923883   -0.050241061    0.004075395
     11        1           0.002693274   -0.013279165    0.002752683
     12        1          -0.012517643   -0.007383345    0.006364634
     13        1           0.015840310    0.000584592    0.008682726
     14        1          -0.006855334   -0.007502932   -0.010682851
 -------------------------------------------------------------------
 Cartesian Forces:  Max     0.063754130 RMS     0.021372087
 FormGI is forming the generalized inverse of G from B-inverse, IUseBI=4.
 Leave Link  716 at Wed Dec 23 10:10:28 2020, MaxMem=  4026531840 cpu:         0.7
 (Enter /home/scicons/Gaussian09D/Gaussian09.D01/l103.exe)

 GradGradGradGradGradGradGradGradGradGradGradGradGradGradGradGradGradGrad
 Berny optimization.
 Red2BG is reusing G-inverse.
 Internal  Forces:  Max     0.097818925 RMS     0.020873971
 Search for a saddle point.
 Step number   1 out of a maximum of   79
 All quantities printed in internal units (Hartrees-Bohrs-Radians)
 Swapping is turned off.
 Second derivative matrix not updated -- analytic derivatives used.
 ITU=  0
     Eigenvalues ---   -0.06390  -0.05378  -0.00261  -0.00043  -0.00031
     Eigenvalues ---    0.01224   0.02378   0.03046   0.03148   0.03203
     Eigenvalues ---    0.03506   0.04378   0.05780   0.07438   0.07593
     Eigenvalues ---    0.07944   0.08099   0.08256   0.08389   0.09290
     Eigenvalues ---    0.09696   0.10210   0.12578   0.14875   0.16629
     Eigenvalues ---    0.20242   0.26445   0.29419   0.48195   0.48313
     Eigenvalues ---    0.48400   0.48753   0.48843   0.49192   0.53029
     Eigenvalues ---    0.53325
 Eigenvectors required to have negative eigenvalues:
                          A8        A2        D3        D4        D6
   1                    0.59455  -0.39771  -0.36709  -0.34333   0.25122
                          D5        A4        R1        R5        R3
   1                    0.22747  -0.19684   0.19243  -0.13719  -0.07388
 Eigenvalue     2 is  -5.38D-02 should be greater than     0.000000 Eigenvector:
                          A4        A2        D2        D1        D5
   1                   -0.57619   0.45639  -0.36309  -0.33016   0.24603
                          D6        R3        R5        D3        A8
   1                    0.21310  -0.18733   0.14777   0.12623   0.11980
 Eigenvalue     3 is  -2.61D-03 should be greater than     0.000000 Eigenvector:
                          D6        D2        D5        D4        D1
   1                   -0.41895  -0.40014  -0.39042  -0.38772  -0.37161
                          D3        D9        D7        D8        A11
   1                   -0.35919  -0.11515  -0.10288  -0.10064  -0.08924
 Eigenvalue     4 is  -4.33D-04 should be greater than     0.000000 Eigenvector:
                          D23       D20       D26       D29       D24
   1                    0.29616   0.29462   0.29259   0.29184   0.28903
                          D21       D27       D30       D22       D19
   1                    0.28749   0.28546   0.28471   0.28320   0.28165
 Eigenvalue     5 is  -3.11D-04 should be greater than     0.000000 Eigenvector:
                          D12       D15       D18       D11       D9
   1                   -0.30660  -0.29338  -0.28884  -0.28749  -0.28192
                          D10       D14       D17       D13       D8
   1                   -0.28006  -0.27427  -0.26972  -0.26684  -0.26280
 RFO step:  Lambda0=9.658515627D-04 Lambda=-8.16037058D-02.
 Linear search not attempted -- option 19 set.
 Maximum step size (   0.300) exceeded in Quadratic search.
    -- Step size scaled by   0.390
 Iteration  1 RMS(Cart)=  0.08429065 RMS(Int)=  0.00441599
 Iteration  2 RMS(Cart)=  0.00526112 RMS(Int)=  0.00023978
 Iteration  3 RMS(Cart)=  0.00002211 RMS(Int)=  0.00023940
 Iteration  4 RMS(Cart)=  0.00000001 RMS(Int)=  0.00023940
 ITry= 1 IFail=0 DXMaxC= 4.35D-01 DCOld= 1.00D+10 DXMaxT= 3.00D-01 DXLimC= 3.00D+00 Rises=F
 Variable       Old X    -DE/DX   Delta X   Delta X   Delta X     New X
                                 (Linear)    (Quad)   (Total)
    R1        4.30858   0.07387   0.00000   0.10097   0.10097   4.40955
    R2        3.68497   0.05649   0.00000   0.06408   0.06408   3.74905
    R3        3.76056   0.09782   0.00000   0.04571   0.04571   3.80626
    R4        4.30858   0.01872   0.00000   0.01862   0.01862   4.32720
    R5        3.76055   0.09417   0.00000   0.14294   0.14294   3.90349
    R6        1.81414   0.00813   0.00000   0.00582   0.00582   1.81996
    R7        1.81414   0.01201   0.00000   0.00693   0.00693   1.82107
    R8        1.88973   0.01183   0.00000   0.00975   0.00975   1.89947
    R9        1.88973   0.01285   0.00000   0.00764   0.00764   1.89736
   R10        1.88973   0.01350   0.00000   0.00980   0.00980   1.89952
   R11        1.88973   0.01220   0.00000   0.00577   0.00577   1.89550
   R12        1.88973   0.01325   0.00000   0.00959   0.00959   1.89932
   R13        1.88973   0.01360   0.00000   0.00880   0.00880   1.89853
    A1        1.57080  -0.00390   0.00000  -0.01363  -0.01336   1.55744
    A2        2.09440  -0.00408   0.00000   0.14869   0.14869   2.24308
    A3        1.57080   0.00580   0.00000   0.01393   0.01485   1.58565
    A4        2.09440  -0.00462   0.00000  -0.16288  -0.16284   1.93155
    A5        1.57080   0.00560   0.00000   0.00599   0.00598   1.57677
    A6        1.57080  -0.00317   0.00000   0.00923   0.00932   1.58011
    A7        1.57080  -0.00362   0.00000  -0.01680  -0.01644   1.55436
    A8        2.09440   0.00870   0.00000   0.01419   0.01415   2.10855
    A9        1.57080  -0.00071   0.00000   0.00128   0.00155   1.57235
   A10        1.91063   0.01286   0.00000   0.00978   0.00979   1.92042
   A11        1.91063   0.00095   0.00000  -0.00103  -0.00103   1.90961
   A12        1.91063  -0.00831   0.00000  -0.01938  -0.01936   1.89127
   A13        1.91063   0.00370   0.00000   0.00417   0.00415   1.91479
   A14        1.91063   0.00769   0.00000   0.01090   0.01083   1.92146
   A15        1.91063   0.01351   0.00000   0.01409   0.01402   1.92465
   A16        1.91063  -0.00645   0.00000  -0.00899  -0.00901   1.90163
   A17        1.91063  -0.00854   0.00000  -0.01294  -0.01295   1.89768
   A18        1.91063  -0.00991   0.00000  -0.00723  -0.00736   1.90328
   A19        1.91063   0.00577   0.00000  -0.00034  -0.00035   1.91028
   A20        1.91063   0.00946   0.00000   0.02040   0.02036   1.93099
   A21        1.91063   0.00451   0.00000   0.00163   0.00160   1.91224
   A22        1.91063  -0.00721   0.00000  -0.00812  -0.00815   1.90248
   A23        1.91063  -0.00567   0.00000  -0.00518  -0.00518   1.90546
   A24        1.91063  -0.00685   0.00000  -0.00840  -0.00846   1.90217
   A25        3.14159   0.00190   0.00000   0.00030   0.00150   3.14309
   A26        3.14159   0.00338   0.00000  -0.01231  -0.01218   3.12941
    D1       -1.70440   0.00028   0.00000  -0.02119  -0.02120  -1.72560
    D2        0.39000  -0.00144   0.00000  -0.03956  -0.03957   0.35042
    D3        0.39000  -0.00380   0.00000   0.12750   0.12747   0.51747
    D4        2.48439  -0.00552   0.00000   0.10913   0.10910   2.59349
    D5        2.48439   0.00490   0.00000   0.14169   0.14173   2.62612
    D6       -1.70440   0.00318   0.00000   0.12332   0.12335  -1.58105
    D7       -2.67952  -0.00155   0.00000   0.02399   0.02418  -2.65535
    D8       -0.58513  -0.00247   0.00000   0.02221   0.02237  -0.56276
    D9        1.50927  -0.00162   0.00000   0.02866   0.02886   1.53813
   D10        2.03287  -0.00027   0.00000   0.03628   0.03649   2.06936
   D11       -2.15592  -0.00120   0.00000   0.03449   0.03468  -2.12124
   D12       -0.06153  -0.00035   0.00000   0.04094   0.04118  -0.02035
   D13       -1.10872   0.00306   0.00000   0.03038   0.03008  -1.07865
   D14        0.98567   0.00213   0.00000   0.02860   0.02827   1.01394
   D15        3.08007   0.00298   0.00000   0.03505   0.03477   3.11483
   D16        0.46207   0.00015   0.00000   0.02216   0.02207   0.48415
   D17        2.55647  -0.00078   0.00000   0.02038   0.02027   2.57674
   D18       -1.63232   0.00007   0.00000   0.02683   0.02676  -1.60556
   D19       -2.83285   0.00322   0.00000  -0.01889  -0.01889  -2.85173
   D20       -0.73845   0.00371   0.00000  -0.01655  -0.01654  -0.75499
   D21        1.35594   0.00387   0.00000  -0.01334  -0.01331   1.34263
   D22       -1.26205  -0.00312   0.00000  -0.02930  -0.02964  -1.29170
   D23        0.83234  -0.00262   0.00000  -0.02696  -0.02730   0.80505
   D24        2.92674  -0.00246   0.00000  -0.02375  -0.02407   2.90267
   D25        0.30875   0.00152   0.00000  -0.01706  -0.01713   0.29162
   D26        2.40314   0.00202   0.00000  -0.01471  -0.01478   2.38836
   D27       -1.78565   0.00218   0.00000  -0.01151  -0.01156  -1.79721
   D28        1.87954  -0.00307   0.00000  -0.03572  -0.03535   1.84420
   D29       -2.30925  -0.00257   0.00000  -0.03338  -0.03300  -2.34225
   D30       -0.21485  -0.00241   0.00000  -0.03017  -0.02977  -0.24463
         Item               Value     Threshold  Converged?
 Maximum Force            0.097819     0.000450     NO 
 RMS     Force            0.020874     0.000300     NO 
 Maximum Displacement     0.435335     0.001800     NO 
 RMS     Displacement     0.086229     0.001200     NO 
 Predicted change in Energy=-2.972977D-02
 Lowest energy point so far.  Saving SCF results.
 GradGradGradGradGradGradGradGradGradGradGradGradGradGradGradGradGradGrad

 Leave Link  103 at Wed Dec 23 10:10:28 2020, MaxMem=  4026531840 cpu:         0.5
 (Enter /home/scicons/Gaussian09D/Gaussian09.D01/l202.exe)
                          Input orientation:                          
 ---------------------------------------------------------------------
 Center     Atomic      Atomic             Coordinates (Angstroms)
 Number     Number       Type             X           Y           Z
 ---------------------------------------------------------------------
      1         78           0       -2.342575   -0.195765   -0.001906
      2         17           0       -3.759532    1.658128    0.012874
      3          8           0       -2.346042   -0.180884    1.981947
      4          1           0       -1.551629    0.253651    2.309987
      5          1           0       -3.112892    0.310236    2.297223
      6          7           0       -0.328794   -0.235395   -0.010127
      7          1           0       -0.008117   -1.076308   -0.457762
      8          1           0        0.029751    0.557659   -0.510736
      9         17           0       -2.314332   -0.198734   -2.291584
     10          7           0       -3.435349   -1.948661   -0.009914
     11          1           0       -2.842257   -2.713221    0.254304
     12          1           0       -4.202467   -1.890832    0.636896
     13          1           0        0.023810   -0.216106    0.930986
     14          1           0       -3.797287   -2.115236   -0.932187
 ---------------------------------------------------------------------
                    Distance matrix (angstroms):
                    1          2          3          4          5
     1  Pt   0.000000
     2  Cl   2.333432   0.000000
     3  O    1.983912   3.042559   0.000000
     4  H    2.484436   3.481970   0.963079   0.000000
     5  H    2.476979   2.730056   0.963669   1.562341   0.000000
     6  N    2.014187   3.918663   2.835598   2.667849   3.656881
     7  H    2.536307   4.666021   3.495691   3.436808   4.376308
     8  H    2.540569   3.980435   3.521833   3.248025   4.221619
     9  Cl   2.289854   3.293489   4.273686   4.686238   4.685499
    10  N    2.065639   3.621401   2.877349   3.712212   3.244916
    11  H    2.579323   4.473072   3.105433   3.833260   3.658969
    12  H    2.596251   3.630525   2.859965   3.798023   2.964551
    13  H    2.543713   4.320805   2.592673   2.145768   3.461581
    14  H    2.581855   3.890095   3.786820   4.600684   4.096389
                    6          7          8          9         10
     6  N    0.000000
     7  H    1.005158   0.000000
     8  H    1.004042   1.635264   0.000000
     9  Cl   3.024690   3.074357   3.039453   0.000000
    10  N    3.547670   3.564756   4.305739   3.086251   0.000000
    11  H    3.539355   3.349458   4.419544   3.617029   1.003056
    12  H    4.261977   4.410703   5.022334   3.873532   1.005076
    13  H    1.005184   1.633886   1.636249   3.981478   3.981560
    14  H    4.051473   3.957557   4.687026   2.778506   1.004657
                   11         12         13         14
    11  H    0.000000
    12  H    1.634892   0.000000
    13  H    3.861064   4.555503   0.000000
    14  H    1.636285   1.636017   4.656059   0.000000
 Stoichiometry    Cl2H8N2OPt
 Framework group  C1[X(Cl2H8N2OPt)]
 Deg. of freedom    36
 Full point group                 C1      NOp   1
 RotChk:  IX=0 Diff= 4.03D-01
 Largest Abelian subgroup         C1      NOp   1
 Largest concise Abelian subgroup C1      NOp   1
                         Standard orientation:                         
 ---------------------------------------------------------------------
 Center     Atomic      Atomic             Coordinates (Angstroms)
 Number     Number       Type             X           Y           Z
 ---------------------------------------------------------------------
      1         78           0        0.076613   -0.172591    0.001648
      2         17           0        0.860651    2.002884   -0.310601
      3          8           0        1.952980   -0.816269    0.030514
      4          1           0        2.193193   -1.171511   -0.831822
      5          1           0        2.541294   -0.079535    0.229933
      6          7           0       -0.387471   -1.550825   -1.391925
      7          1           0       -1.087743   -2.175187   -1.031182
      8          1           0       -0.744343   -1.101584   -2.215893
      9         17           0       -2.090891    0.563410   -0.058840
     10          7           0       -0.119633   -0.595094    2.014070
     11          1           0       -0.189848   -1.587514    2.141718
     12          1           0        0.675027   -0.254591    2.526662
     13          1           0        0.427100   -2.086394   -1.636947
     14          1           0       -0.950574   -0.156966    2.370323
 ---------------------------------------------------------------------
 Rotational constants (GHZ):      1.5111055      1.3611114      1.0550658
 Leave Link  202 at Wed Dec 23 10:10:28 2020, MaxMem=  4026531840 cpu:         0.5
 (Enter /home/scicons/Gaussian09D/Gaussian09.D01/l301.exe)
 Standard basis: def2TZVP (5D, 7F)
 Ernie: Thresh=  0.10000D-02 Tol=  0.10000D-05 Strict=F.
 There are   286 symmetry adapted cartesian basis functions of A   symmetry.
 There are   255 symmetry adapted basis functions of A   symmetry.
   255 basis functions,   430 primitive gaussians,   286 cartesian basis functions
    41 alpha electrons       41 beta electrons
       nuclear repulsion energy       556.8597962480 Hartrees.
 IExCor=  402 DFT=T Ex+Corr=B3LYP ExCW=0 ScaHFX=  0.200000
 ScaDFX=  0.800000  0.720000  1.000000  0.810000 ScalE2=  1.000000  1.000000
 IRadAn=      0 IRanWt=     -1 IRanGd=            0 ICorTp=0 IEmpDi=141
 NAtoms=   14 NActive=   14 NUniq=   14 SFac= 1.00D+00 NAtFMM=   60 NAOKFM=F Big=F
 Integral buffers will be    131072 words long.
 Raffenetti 2 integral format.
 Two-electron integral symmetry is turned on.
 R6Disp:  Grimme-D3(BJ) Dispersion energy=       -0.0292893959 Hartrees.
 Nuclear repulsion after empirical dispersion term =      556.8305068521 Hartrees.
 Force inversion solution in PCM.
 ------------------------------------------------------------------------------
 Polarizable Continuum Model (PCM)
 =================================
 Model                : PCM (using non-symmetric T matrix).
 Atomic radii         : SMD-Coulomb.
 Polarization charges : Total charges.
 Charge compensation  : None.
 Solution method      : Matrix inversion.
 Cavity type          : VdW (van der Waals Surface) (Alpha=1.000).
 Cavity algorithm     : GePol (No added spheres)
                        Default sphere list used, NSphG=   14.
                        Lebedev-Laikov grids with approx.  5.0 points / Ang**2.
                        Smoothing algorithm: Karplus/York (Gamma=1.0000).
                        Polarization charges: spherical gaussians, with
                                              point-specific exponents (IZeta= 3).
                        Self-potential: point-specific (ISelfS= 7).
                        Self-field    : sphere-specific E.n sum rule (ISelfD= 2).
 1st derivatives      : Analytical E(r).r(x)/FMM algorithm (CHGder, D1EAlg=3).
                        Cavity 1st derivative terms included.
 2nd derivatives      : Analytical E(r).r(xy)/FMM algorithm (CHGder, D2EAlg=3).
                        Cavity 2nd derivative terms included.
 Solvent              : Water, Eps=  78.355300 Eps(inf)=   1.777849
 ------------------------------------------------------------------------------
 Spheres list:
 ISph  on   Nord     Re0    Alpha      Xe            Ye            Ze
    1  Pt      1    1.7500  1.000      0.076613     -0.172591      0.001648
    2  Cl      2    2.3800  1.000      0.860651      2.002884     -0.310601
    3   O      3    1.5200  1.000      1.952980     -0.816269      0.030514
    4   H      4    1.2000  1.000      2.193193     -1.171511     -0.831822
    5   H      5    1.2000  1.000      2.541294     -0.079535      0.229933
    6   N      6    1.8900  1.000     -0.387471     -1.550825     -1.391925
    7   H      7    1.2000  1.000     -1.087743     -2.175187     -1.031182
[...]
 Vib (V=0)    4  0.241909D+01          0.383652          0.883391
 Vib (V=0)    5  0.211702D+01          0.325725          0.750009
 Vib (V=0)    6  0.209137D+01          0.320430          0.737818
 Vib (V=0)    7  0.186277D+01          0.270160          0.622067
 Vib (V=0)    8  0.172039D+01          0.235626          0.542548
 Vib (V=0)    9  0.155961D+01          0.193016          0.444435
 Vib (V=0)   10  0.152043D+01          0.181966          0.418992
 Vib (V=0)   11  0.127506D+01          0.105530          0.242992
 Vib (V=0)   12  0.124685D+01          0.095816          0.220623
 Vib (V=0)   13  0.118030D+01          0.071991          0.165766
 Vib (V=0)   14  0.116337D+01          0.065720          0.151325
 Vib (V=0)   15  0.114822D+01          0.060025          0.138213
 Vib (V=0)   16  0.111061D+01          0.045563          0.104913
 Electronic      0.100000D+01          0.000000          0.000000
 Translational   0.221807D+09          8.345975         19.217317
 Rotational      0.738650D+06          5.868439         13.512579
 
                                                         Title Card Required
                                                             IR Spectrum
 
     3   33333 33                                                         11111          1        1                                  
     7   55555 44                                                         66665          2        0    8  777      44433322111111    
     4   87432 54                                                         22009          8        2    6  952      7208312185331087  
     2   76670 07                                                         10747          6        2    4  108      8479682209521174  
 
     X   XXXXX XX                                                         XXXXX          X        X    X  XXX      XXXXXXXXXXXXXXXX  
     X   XXXXX  X                                                         XXXXX          X        X    X   XX       XX XXXX XX       
     X    XXXX                                                             XXXX          X        X        XX       XX  X            
     X     XXX                                                             XX            X        X        XX       XX  X            
     X     XXX                                                             X             X        X        XX       X   X            
     X       X                                                             X                      X        XX           X            
     X       X                                                                                    X        XX           X            
     X       X                                                                                    X        XX                        
     X       X                                                                                    X         X                        
     X       X                                                                                    X         X                        
     X       X                                                                                    X         X                        
     X       X                                                                                    X         X                        
     X       X                                                                                    X         X                        
             X                                                                                              X                        
             X                                                                                              X                        
             X                                                                                              X                        
                                                                                                            X                        
                                                                                                            X                        
                                                                                                            X                        
                                                                                                            X                        
 
 ***** Axes restored to original set *****
 -------------------------------------------------------------------
 Center     Atomic                   Forces (Hartrees/Bohr)
 Number     Number              X              Y              Z
 -------------------------------------------------------------------
      1       78          -0.000001753   -0.000001274   -0.000003324
      2       17          -0.000007316   -0.000007152   -0.000010537
      3        8           0.000000136    0.000011736   -0.000002341
      4        1          -0.000002238    0.000018208   -0.000007696
      5        1          -0.000001579    0.000010736   -0.000005159
      6        7          -0.000002791    0.000006596   -0.000004687
      7        1           0.000000764    0.000006315    0.000000782
      8        1          -0.000006006    0.000003303   -0.000010049
      9       17          -0.000001856   -0.000018552   -0.000001044
     10        7           0.000005368   -0.000009899    0.000011462
     11        1           0.000009960   -0.000005259    0.000016890
     12        1           0.000003762   -0.000011659    0.000008052
     13        1          -0.000002969    0.000013967   -0.000006186
     14        1           0.000006519   -0.000017068    0.000013837
 -------------------------------------------------------------------
 Cartesian Forces:  Max     0.000018552 RMS     0.000008699
 Red2BG is reusing G-inverse.
 Leave Link  716 at Wed Dec 23 10:25:59 2020, MaxMem=  4026531840 cpu:         0.7
 (Enter /home/scicons/Gaussian09D/Gaussian09.D01/l9999.exe)
 1\1\GINC-CU03\Freq\RB3LYP\def2TZVP\Cl2H8N2O1Pt1\SKY\23-Dec-2020\0\\#p 
 opt=(calcall, ts, noeigen) b3lyp/def2tzvp em=gd3bj scrf=(smd,solvent=w
 ater) geom=connectivity\\Title Card Required\\0,1\Pt,-2.0537271655,-0.
 2145697522,-0.0057489541\Cl,-4.3866070151,0.9993401522,0.5034973437\O,
 -2.1292843748,-0.1892145205,2.1083193729\H,-1.4265318126,0.3569542634,
 2.4948733257\H,-2.96091843,0.3161197719,2.2304562451\N,0.0044171975,-0
 .0788827678,-0.0640041968\H,0.4136536838,-0.9653258931,-0.3484248348\H
 ,0.2981441397,0.6275874821,-0.7332248903\Cl,-2.0286331551,-0.231544341
 3,-2.3074966068\N,-3.8193087748,-2.0404693019,-0.0981203877\H,-3.73120
 02869,-2.8564557058,0.4974484082\H,-4.6630770684,-1.5347588757,0.14781
 4731\H,0.3870055564,0.1678313856,0.8459102196\H,-3.8916435943,-2.34807
 89068,-1.0612997756\\Version=ES64L-G09RevD.01\State=1-A\HF=-1229.64113
 95\RMSD=9.884e-09\RMSF=8.699e-06\ZeroPoint=0.1040254\Thermal=0.1158085
 \Dipole=4.1537074,-1.5494133,2.7034529\DipoleDeriv=1.6692527,0.0259853
 ,-0.2754174,-0.1421725,1.0734702,0.3999021,-0.3118432,0.2714058,1.7569
 262,-1.2836211,0.5304779,0.1149764,0.2613629,-1.0175143,-0.1022816,0.1
 161452,-0.1777726,-0.8000325,-0.5747352,0.0609699,-0.1488418,0.1193781
 ,-0.3388571,0.0376573,0.036579,-0.0107329,-1.563592,0.3902273,0.015403
 7,0.1189306,-0.0248078,0.3804952,0.0182282,0.0734361,0.0052132,0.41124
 77,0.5873266,-0.076185,0.1521698,-0.090309,0.3507314,-0.1342205,0.0423
 382,-0.0243349,0.5133117,-0.8704115,-0.0345262,0.0731667,0.0510652,-0.
 5436446,-0.0819947,-0.0615176,-0.0330503,-0.2281325,0.1421784,0.088411
 1,0.0204179,-0.0673505,0.3050055,0.0004633,0.0001951,-0.0017861,0.2616
 852,0.2161055,-0.0605637,-0.0217348,0.0454992,0.2788979,-0.0068097,0.0
 025184,-0.0103202,0.2527362,-0.3643715,-0.0438903,0.0131537,-0.0404742
 ,-0.3425714,-0.0234381,0.0157558,-0.0431255,-1.0915334,-0.7546584,-0.4
 051749,-0.0281702,-0.2269208,-1.0681495,-0.1502698,0.0240662,-0.004249
 2,-0.3402793,0.2646527,-0.1108678,0.0187942,0.0001639,0.0828368,0.0443
 509,0.0194843,0.0193108,0.2100347,0.1381253,0.0311708,0.0248711,0.0622
 492,0.3701948,0.0319636,0.0151677,0.046399,0.1980665,0.1646717,-0.0331
 945,-0.0189097,0.0182676,0.2603704,-0.007278,0.0706005,0.0151063,0.260
 6109,0.2752574,0.0119837,-0.0434064,0.0340486,0.2087348,-0.026273,-0.0
 429258,-0.0520633,0.1589506\Polar=140.0382829,-2.8199743,121.217909,-4
 .4166796,7.4145737,134.3570649\PG=C01 [X(Cl2H8N2O1Pt1)]\NImag=1\\0.203
 72407,0.01852742,-0.00593410,0.00101922,-0.00883944,0.25696131,-0.0122
 0186,-0.02288307,-0.00721577,0.02434834,0.00311711,0.01252416,0.005578
 66,-0.00740469,0.01560602,-0.00215163,0.01078931,-0.00906118,0.0044826
 0,-0.00201917,0.00495531,-0.03906845,-0.00208562,-0.00218577,-0.009395
 37,0.00503254,-0.01306888,0.62997277,-0.00184348,-0.02185200,-0.003243
 47,0.00579155,0.00020564,0.00579305,0.00441922,0.33774980,-0.00094523,
 0.01281861,-0.07053296,-0.00479205,0.00181084,-0.00235671,0.08976808,0
 .15362529,0.20991909,0.00377747,0.00205285,-0.00218649,-0.00043836,0.0
 0044650,-0.00086710,-0.27517541,-0.16150482,-0.11654940,0.30082408,0.0
 0207947,-0.00116693,-0.00083017,0.00066946,-0.00041129,0.00100096,-0.2
 0419723,-0.17705347,-0.12100334,0.18333457,0.16726212,-0.01274742,-0.0
 0855204,-0.00784938,0.00001575,0.00004599,0.00014327,-0.12665255,-0.10
 899850,-0.09386969,0.12972813,0.11305249,0.10304754,0.00197239,-0.0004
 6011,0.00668929,0.00027358,-0.00162100,0.00807352,-0.31590128,0.152851
 68,0.03052756,-0.02646428,0.01760887,0.00320917,0.34052360,-0.00092597
 ,0.00178951,-0.00305493,-0.00228945,-0.00202397,-0.00364910,0.19710473
 ,-0.14694407,-0.04365297,-0.02481909,0.01076918,0.00370658,-0.16974479
 ,0.13723334,0.01699722,-0.01132983,-0.01294271,0.00103800,-0.00008566,
 0.00322211,0.04588507,-0.04552786,-0.03090620,-0.01435477,0.00817791,0
 .00176411,-0.04720332,0.04622632,0.04011965,-0.09346424,-0.00437602,-0
 .00291344,-0.00639697,-0.00006921,0.00192314,0.00216100,0.00033099,0.0
 0219058,-0.00021730,0.00016049,0.00224457,-0.00041543,0.00058736,-0.00
 059889,0.35267556,-0.00957175,0.00143546,0.00499531,0.01303049,-0.0054
 5787,-0.00460240,-0.00050473,0.00067468,0.00012694,0.00065064,0.000042
 29,-0.00087282,0.00103272,-0.00064963,0.00083504,-0.01775420,0.6540106
 1,0.00125762,0.00428458,-0.04419911,0.00288293,-0.00180870,0.00187936,
 0.00526328,0.00115613,0.00290029,0.00216538,-0.00091830,-0.00202577,0.
 00074600,-0.00030363,-0.00049344,0.01506747,0.00080857,0.68344412,-0.0
 0888031,0.00543789,0.00360100,-0.00380184,0.00165721,0.00119357,-0.000
 07483,-0.00010862,-0.00002288,-0.00004823,-0.00003128,-0.00004710,-0.0
 0030994,0.00015948,-0.00028721,-0.09320442,0.14986371,0.04417953,0.096
 30935,0.00341022,0.00355346,0.00048049,-0.00146930,0.00034611,0.000456
 27,0.00009007,-0.00002789,0.00042006,-0.00001059,-0.00005650,-0.000134
 78,-0.00004908,0.00003734,-0.00013172,0.12010649,-0.32708638,-0.086011
 04,-0.13469310,0.35153303,0.00086853,0.00071944,0.00067328,-0.00023803
 ,0.00000757,0.00016949,0.00022838,-0.00012654,0.00007164,-0.00012713,0
 .00001428,0.00020070,-0.00000995,0.00003137,-0.00004083,0.03648926,-0.
 08817347,-0.08685685,-0.04114828,0.09498115,0.08480872,-0.00907823,-0.
 00555060,0.01293395,0.00121249,-0.00044429,-0.00083805,-0.00055272,0.0
 0001851,-0.00054599,0.00000452,0.00000894,-0.00014669,0.00006577,-0.00
 005307,0.00011074,-0.06495174,-0.08865462,0.08143336,0.00329754,0.0100
 8350,-0.01100442,0.06841780,-0.00341533,0.00146268,-0.00055531,0.00060
 608,-0.00024839,-0.00017229,0.00014140,-0.00010336,-0.00028216,-0.0001
 2242,0.00009324,0.00020373,-0.00000614,0.00001692,0.00003181,-0.066862
 71,-0.23290605,0.16419291,-0.01019476,-0.02181545,0.02361270,0.0756777
 9,0.24535085,0.00178378,-0.00101557,0.00175138,-0.00018903,-0.00000141
 ,0.00009238,0.00014350,0.00014323,0.00009496,-0.00015951,0.00001635,0.
 00016810,-0.00002836,0.00003599,-0.00002698,0.06324994,0.16487006,-0.2
 1370812,-0.00372171,-0.00908458,0.00868760,-0.07127226,-0.17927777,0.2
 2315839,-0.02445048,0.00049259,0.00445528,0.00034215,-0.00064420,0.001
 82889,0.00736853,0.00005978,0.00016952,-0.00014764,-0.00017204,0.00132
 217,0.00022584,0.00005563,-0.00144279,-0.00081056,-0.00104336,-0.00986
 474,0.00071520,0.00012443,0.00023491,0.00113453,-0.00001320,0.00037678
 ,0.01629767,0.00007061,-0.01871729,-0.00088588,-0.00062854,0.00174325,
 -0.00027635,0.00048158,0.00686566,-0.00311207,-0.00006230,0.00040990,0
 .00121906,-0.00048610,0.00031198,0.00102438,-0.00020211,0.00135879,-0.
 00068451,-0.00040734,-0.00002985,-0.00016677,0.00003704,-0.00035288,0.
 00023307,0.00192521,0.00818882,-0.00357185,0.00151895,-0.10959015,0.00
 308440,-0.00089732,0.00030935,0.00176978,-0.00210927,-0.01558988,0.001
 94971,0.00099179,-0.00033941,-0.00199517,0.00083014,-0.00078111,-0.002
 82123,-0.00104717,-0.00215057,-0.00012660,-0.00024317,-0.00010832,-0.0
 0079663,0.00014419,-0.00020526,0.00104321,0.00023120,0.12945440,-0.010
 18417,0.00759404,0.00069055,0.00290220,-0.00004320,-0.00046741,-0.0003
 4945,-0.00018069,-0.00080249,0.00017763,0.00007265,0.00014472,0.000124
 29,-0.00019630,0.00021373,-0.00469628,-0.00768603,-0.00012279,0.001157
 19,-0.00016523,-0.00009804,-0.00155184,0.00040318,-0.00067877,-0.00039
 946,-0.00145286,0.00158160,0.37746777,-0.00594481,0.02207787,0.0066633
 4,0.01115977,-0.01881823,-0.00693855,-0.00064260,0.00061025,-0.0010182
 5,0.00012008,0.00018168,0.00026672,0.00127935,-0.00068269,0.00111398,-
 0.00084824,-0.00983382,-0.00151197,0.00163920,-0.00009369,-0.00002366,
 -0.00185094,0.00018165,-0.00052831,-0.00196542,-0.00023439,0.00062574,
 -0.21664414,0.50047827,-0.00160832,-0.00172221,-0.01175450,-0.00002241
 ,-0.00137847,0.00252128,-0.00124112,-0.00098114,0.00045468,0.00012771,
 -0.00007010,-0.00030563,0.00014870,0.00004312,0.00007836,0.00036108,0.
 00010637,0.00325399,-0.00017531,-0.00001169,-0.00004312,-0.00039126,0.
 00010205,-0.00008555,0.00234524,0.00226052,-0.00139539,-0.04023158,-0.
 02874777,0.65631332,0.00104027,0.00497796,0.00393678,0.00246909,-0.001
 45555,-0.00098529,0.00023775,0.00030570,-0.00022197,-0.00000039,0.0000
 4751,0.00010087,0.00013058,-0.00004912,0.00014056,-0.00050792,-0.00164
 212,-0.00083619,0.00029512,-0.00006724,0.00000594,-0.00025700,0.000006
 40,-0.00004253,-0.00054189,-0.00016940,0.00013479,-0.03090033,0.019881
 83,0.00438100,0.03399577,0.00054763,0.00219730,0.00113812,0.00100669,-
 0.00253167,-0.00111318,-0.00002081,0.00004594,-0.00010934,-0.00002575,
 0.00002589,0.00003791,0.00021371,-0.00010675,0.00016632,0.00000624,-0.
 00062148,-0.00033788,0.00010658,-0.00003812,0.00000756,-0.00009599,-0.
 00000992,-0.00001310,-0.00019911,-0.00002093,0.00016346,0.05330815,-0.
 29301467,0.19005395,-0.04612439,0.29841761,0.00086861,0.00148311,0.000
 79110,0.00075312,-0.00129719,-0.00065997,0.00003757,0.00017584,0.00002
 462,-0.00001163,0.00002771,0.00002776,0.00011571,-0.00004575,0.0001225
 9,-0.00021045,-0.00057972,-0.00016981,0.00008738,-0.00001011,0.0000052
 5,-0.00012546,0.00000500,-0.00003197,0.00024012,0.00033715,-0.00007239
 ,-0.01695726,0.16792392,-0.17994819,0.01737553,-0.19106946,0.19166947,
 -0.00365359,-0.00240887,0.00025114,-0.00062123,0.00215644,0.00052381,0
 .00003383,-0.00010377,-0.00001792,-0.00002327,-0.00003811,-0.00000277,
 -0.00030784,-0.00002007,-0.00031013,-0.00107551,0.00002534,0.00003031,
 -0.00000025,-0.00002831,-0.00001410,0.00000426,0.00001702,-0.00002011,
 0.00002990,-0.00023482,0.00017265,-0.30012700,0.19067208,0.08561429,-0
 .00275226,-0.00488877,0.00081842,0.30622739,-0.00383665,0.00207906,0.0
 0120670,0.00140862,0.00088584,0.00072241,0.00052225,-0.00010287,0.0001
 6130,-0.00000860,-0.00007132,0.00000383,-0.00075588,0.00025123,-0.0006
 6489,-0.00135993,-0.00110339,-0.00009240,0.00025609,0.00000647,-0.0000
 1271,-0.00019389,0.00001409,-0.00005967,0.00017164,-0.00016647,-0.0002
 1933,0.15137065,-0.11924338,-0.03498746,0.02378901,-0.01397119,-0.0090
 5886,-0.17899221,0.13727279,-0.00024134,0.00046448,0.00049884,-0.00002
 891,0.00030740,-0.00104851,0.00004294,-0.00001395,-0.00000194,-0.00000
 771,-0.00001876,-0.00000367,-0.00015647,-0.00011267,-0.00015889,-0.000
 23266,-0.00019954,0.00000710,0.00004147,-0.00000039,-0.00000408,-0.000
 04545,0.00000647,-0.00001457,0.00004076,0.00017161,-0.00012610,0.07262
 623,-0.03862854,-0.07889911,-0.02194559,0.01146215,0.00665057,-0.08293
 554,0.04453942,0.07976756,-0.00866345,-0.00146350,-0.01517514,0.000495
 78,-0.00034784,0.00046162,0.00102485,0.00009665,0.00095221,-0.00227473
 ,0.00048587,0.00286656,0.00003405,0.00017134,-0.00025069,-0.08863491,-
 0.03714398,-0.14282802,0.00447970,0.00268562,0.01483577,0.00250557,0.0
 0374601,0.01062369,-0.00064212,0.00003934,0.00003283,-0.00081233,-0.00
 119377,0.00065776,-0.00034498,-0.00012853,-0.00010108,-0.00001293,-0.0
 0011524,-0.00001427,0.09278694,-0.00148509,0.00069228,0.00083221,0.000
 46438,-0.00018476,-0.00020152,-0.00012551,-0.00006103,-0.00011265,-0.0
 0004305,-0.00001852,0.00004160,-0.00001983,0.00000976,0.00001162,-0.02
 943887,-0.07946739,-0.07926639,-0.01372167,-0.00632684,-0.03084634,0.0
 1120809,0.00832244,0.02473939,0.00021062,0.00015027,0.00002166,-0.0001
 2441,-0.00020925,-0.00000094,-0.00003069,-0.00001889,-0.00001253,0.000
 00417,-0.00002502,-0.00000415,0.03311762,0.07715205,-0.00116076,0.0002
 9933,0.00491455,0.00049874,-0.00011162,-0.00024769,-0.00003061,0.00005
 607,-0.00021636,0.00028285,-0.00045556,-0.00094748,-0.00010366,-0.0000
 4684,0.00008257,-0.11499395,-0.07660061,-0.34190571,-0.00352400,-0.000
 71067,-0.00756364,-0.00940125,-0.00799217,-0.01993437,-0.00038131,-0.0
 0009827,0.00019055,0.00072545,0.00075327,-0.00025338,0.00017872,0.0000
 6939,0.00005826,0.00001788,0.00005447,0.00000945,0.12790306,0.08479695
 ,0.36584610,-0.00086942,0.00014503,-0.00390058,0.00081201,-0.00037982,
 -0.00010878,-0.00028121,-0.00013270,0.00028998,0.00000590,-0.00002916,
 -0.00003541,0.00004868,0.00001932,0.00006249,-0.00046130,-0.00060211,0
 .00062584,0.00006572,-0.00001747,-0.00002285,-0.00025095,0.00001669,-0
 .00006540,0.00087833,0.00108970,-0.00045750,-0.03280821,0.00433760,-0.
 04996577,-0.00286380,-0.00370564,-0.00289058,0.00227850,0.00774414,0.0
 3285654,0.00005855,-0.00001575,-0.00001116,0.03338722,-0.00072937,-0.0
 0014145,-0.00348563,0.00053801,-0.00163485,0.00021056,-0.00021527,-0.0
 0000728,0.00032775,-0.00000801,-0.00000629,-0.00001977,0.00015659,-0.0
 0001215,0.00015258,-0.00028027,-0.00039583,0.00049264,0.00003658,-0.00
 000168,-0.00002458,-0.00019048,-0.00000584,-0.00005768,0.00099743,0.00
 049313,-0.00001086,0.01374418,-0.08139960,-0.12466621,0.00053012,0.009
 64686,0.03212089,-0.00616011,-0.00582584,-0.01797353,0.00005041,-0.000
 01510,-0.00001373,-0.00846981,0.07930592,-0.00036842,-0.00091872,0.000
 33953,-0.00026934,-0.00015091,0.00008152,0.00004031,0.00005113,0.00000
 844,0.00000996,0.00001474,-0.00001044,-0.00001302,-0.00000763,-0.00003
 922,0.00024459,0.00033344,0.00002452,-0.00004986,0.00000019,0.00000015
 ,0.00008941,-0.00001917,0.00005401,-0.00036805,-0.00025314,0.00040429,
 -0.01662394,-0.09994990,-0.38993677,-0.00222262,-0.01045589,-0.0184672
 8,-0.00412793,-0.00159281,-0.00667665,0.00003569,0.00000109,-0.0000328
 6,0.02362319,0.11294758,0.41425078\\0.00000175,0.00000127,0.00000332,0
 .00000732,0.00000715,0.00001054,-0.00000014,-0.00001174,0.00000234,0.0
 0000224,-0.00001821,0.00000770,0.00000158,-0.00001074,0.00000516,0.000
 00279,-0.00000660,0.00000469,-0.00000076,-0.00000631,-0.00000078,0.000
 00601,-0.00000330,0.00001005,0.00000186,0.00001855,0.00000104,-0.00000
 537,0.00000990,-0.00001146,-0.00000996,0.00000526,-0.00001689,-0.00000
 376,0.00001166,-0.00000805,0.00000297,-0.00001397,0.00000619,-0.000006
 52,0.00001707,-0.00001384\\\@


 MICRO CREDO - NEVER TRUST A COMPUTER BIGGER
               BIGGER THAN YOU CAN LIFT.
 Job cpu time:       0 days  5 hours 44 minutes 55.4 seconds.
 File lengths (MBytes):  RWF=    162 Int=      0 D2E=      0 Chk=     13 Scr=      1
 Normal termination of Gaussian 09 at Wed Dec 23 10:25:59 2020.
