 Entering Gaussian System, Link 0=g09
 Input=pt-n-cl.gjf
 Output=pt-n-cl.log
 Initial command:
 /home/scicons/Gaussian09D/Gaussian09.D01/l1.exe "/tmp/Gau-57096.inp" -scrdir="/tmp/"
 Entering Link 1 = /home/scicons/Gaussian09D/Gaussian09.D01/l1.exe PID=     57097.
  
 Copyright (c) 1988,1990,1992,1993,1995,1998,2003,2009,2013,
            Gaussian, Inc.  All Rights Reserved.
  
 This is part of the Gaussian(R) 09 program.  It is based on
 the Gaussian(R) 03 system (copyright 2003, Gaussian, Inc.),
 the Gaussian(R) 98 system (copyright 1998, Gaussian, Inc.),
 the Gaussian(R) 94 system (copyright 1995, Gaussian, Inc.),
 the Gaussian 92(TM) system (copyright 1992, Gaussian, Inc.),
 the Gaussian 90(TM) system (copyright 1990, Gaussian, Inc.),
 the Gaussian 88(TM) system (copyright 1988, Gaussian, Inc.),
 the Gaussian 86(TM) system (copyright 1986, Carnegie Mellon
 University), and the Gaussian 82(TM) system (copyright 1983,
 Carnegie Mellon University). Gaussian is a federally registered
 trademark of Gaussian, Inc.
  
 This software contains proprietary and confidential information,
 including trade secrets, belonging to Gaussian, Inc.
  
 This software is provided under written license and may be
 used, copied, transmitted, or stored only in accord with that
 written license.
  
 The following legend is applicable only to US Government
 contracts under FAR:
  
                    RESTRICTED RIGHTS LEGEND
  
 Use, reproduction and disclosure by the US Government is
 subject to restrictions as set forth in subparagraphs (a)
 and (c) of the Commercial Computer Software - Restricted
 Rights clause in FAR 52.227-19.
  
 Gaussian, Inc.
 340 Quinnipiac St., Bldg. 40, Wallingford CT 06492
  
  
 ---------------------------------------------------------------
 Warning -- This program may not be used in any manner that
 competes with the business of Gaussian, Inc. or will provide
 assistance to any competitor of Gaussian, Inc.  The licensee
 of this program is prohibited from giving any competitor of
 Gaussian, Inc. access to this program.  By using this program,
 the user acknowledges that Gaussian, Inc. is engaged in the
 business of creating and licensing software in the field of
 computational chemistry and represents and warrants to the
 licensee that it is not a competitor of Gaussian, Inc. and that
 it will not use this program in any manner prohibited above.
 ---------------------------------------------------------------
  

 Cite this work as:
 Gaussian 09, Revision D.01,
 M. J. Frisch, G. W. Trucks, H. B. Schlegel, G. E. Scuseria, 
 M. A. Robb, J. R. Cheeseman, G. Scalmani, V. Barone, B. Mennucci, 
 G. A. Petersson, H. Nakatsuji, M. Caricato, X. Li, H. P. Hratchian, 
 A. F. Izmaylov, J. Bloino, G. Zheng, J. L. Sonnenberg, M. Hada, 
 M. Ehara, K. Toyota, R. Fukuda, J. Hasegawa, M. Ishida, T. Nakajima, 
 Y. Honda, O. Kitao, H. Nakai, T. Vreven, J. A. Montgomery, Jr., 
 J. E. Peralta, F. Ogliaro, M. Bearpark, J. J. Heyd, E. Brothers, 
 K. N. Kudin, V. N. Staroverov, T. Keith, R. Kobayashi, J. Normand, 
 K. Raghavachari, A. Rendell, J. C. Burant, S. S. Iyengar, J. Tomasi, 
 M. Cossi, N. Rega, J. M. Millam, M. Klene, J. E. Knox, J. B. Cross, 
 V. Bakken, C. Adamo, J. Jaramillo, R. Gomperts, R. E. Stratmann, 
 O. Yazyev, A. J. Austin, R. Cammi, C. Pomelli, J. W. Ochterski, 
 R. L. Martin, K. Morokuma, V. G. Zakrzewski, G. A. Voth, 
 P. Salvador, J. J. Dannenberg, S. Dapprich, A. D. Daniels, 
 O. Farkas, J. B. Foresman, J. V. Ortiz, J. Cioslowski, 
 and D. J. Fox, Gaussian, Inc., Wallingford CT, 2013.
 
 ******************************************
 Gaussian 09:  ES64L-G09RevD.01 24-Apr-2013
                23-Dec-2020 
 ******************************************
 %nproc=24
 Will use up to   24 processors via shared memory.
 %mem=30GB
 %chk=pt-n-cl.chk
 ----------------------------------------------------------------------
 #p opt=(calcall, ts, noeigen) b3lyp/def2tzvp em=gd3bj scrf=(smd,solven
 t=water) geom=connectivity
 ----------------------------------------------------------------------
 1/5=1,10=4,11=1,14=-1,18=20,26=3,38=1,57=2/1,3;
 2/9=110,12=2,17=6,18=5,40=1/2;
 3/5=44,7=101,11=2,16=1,25=1,30=1,70=32201,71=2,72=1,74=-5,124=41,140=1/1,2,3;
 4//1;
 5/5=2,38=5,53=1/2;
 8/6=4,10=90,11=11/1;
 11/6=1,8=1,9=11,15=111,16=1/1,2,10;
 10/6=1/2;
 6/7=2,8=2,9=2,10=2,18=1,28=1/1;
 7/10=1,25=1/1,2,3,16;
 1/5=1,10=4,11=1,14=-1,18=20,26=3/3(3);
 2/9=110/2;
 7/8=1,9=1,25=1,44=-1/16;
 99//99;
 2/9=110/2;
 3/5=44,7=101,11=2,16=1,25=1,30=1,70=32205,71=2,72=1,74=-5,124=41,140=1/1,2,3;
 4/5=5,16=3,69=1/1;
 5/5=2,38=5,53=1/2;
 8/6=4,10=90,11=11/1;
 11/6=1,8=1,9=11,15=111,16=1/1,2,10;
 10/6=1/2;
 7/10=1,25=1/1,2,3,16;
 1/5=1,10=4,11=1,14=-1,18=20,26=3/3(-8);
 2/9=110/2;
 6/7=2,8=2,9=2,10=2,18=1,19=2,28=1/1;
 7/8=1,9=1,25=1,44=-1/16;
 99//99;
 Leave Link    1 at Wed Dec 23 10:09:34 2020, MaxMem=  4026531840 cpu:         1.0
 (Enter /home/scicons/Gaussian09D/Gaussian09.D01/l101.exe)
 -------------------
 Title Card Required
 -------------------
 Symbolic Z-matrix:
 Charge =  0 Multiplicity = 1
 Pt                    0.61576   0.36933  -0.00967 
 N                     0.61576   0.36933   1.98033 
 H                     1.08717  -0.44716   2.31366 
 H                     1.08717   1.18583   2.31366 
 N                    -0.37924   2.09272  -0.00967 
 H                     0.14016   2.7775   -0.52085 
 H                    -1.27232   1.962    -0.44015 
 Cl                   -0.52424  -1.60521  -0.00967 
 Cl                    0.61576   0.36933  -2.28967 
 O                     2.56576   0.36933  -0.00967 
 H                     2.88576   1.27432   0.00446 
 H                     2.88576  -0.07092  -0.80048 
 H                    -0.32705   0.36933   2.31366 
 H                    -0.50555   2.40469   0.93199 
 
 NAtoms=     14 NQM=       14 NQMF=       0 NMMI=      0 NMMIF=      0
                NMic=       0 NMicF=      0.
                    Isotopes and Nuclear Properties:
 (Nuclear quadrupole moments (NQMom) in fm**2, nuclear magnetic moments (NMagM)
  in nuclear magnetons)

  Atom         1           2           3           4           5           6           7           8           9          10
 IAtWgt=         195          14           1           1          14           1           1          35          35          16
 AtmWgt= 194.9648000  14.0030740   1.0078250   1.0078250  14.0030740   1.0078250   1.0078250  34.9688527  34.9688527  15.9949146
 NucSpn=           1           2           1           1           2           1           1           3           3           0
 AtZEff=   0.0000000   0.0000000   0.0000000   0.0000000   0.0000000   0.0000000   0.0000000   0.0000000   0.0000000   0.0000000
 NQMom=    0.0000000   2.0440000   0.0000000   0.0000000   2.0440000   0.0000000   0.0000000  -8.1650000  -8.1650000   0.0000000
 NMagM=    0.6095000   0.4037610   2.7928460   2.7928460   0.4037610   2.7928460   2.7928460   0.8218740   0.8218740   0.0000000
 AtZNuc=  78.0000000   7.0000000   1.0000000   1.0000000   7.0000000   1.0000000   1.0000000  17.0000000  17.0000000   8.0000000

  Atom        11          12          13          14
 IAtWgt=           1           1           1           1
 AtmWgt=   1.0078250   1.0078250   1.0078250   1.0078250
 NucSpn=           1           1           1           1
 AtZEff=   0.0000000   0.0000000   0.0000000   0.0000000
 NQMom=    0.0000000   0.0000000   0.0000000   0.0000000
 NMagM=    2.7928460   2.7928460   2.7928460   2.7928460
 AtZNuc=   1.0000000   1.0000000   1.0000000   1.0000000
 Leave Link  101 at Wed Dec 23 10:09:34 2020, MaxMem=  4026531840 cpu:        11.2
 (Enter /home/scicons/Gaussian09D/Gaussian09.D01/l103.exe)

 GradGradGradGradGradGradGradGradGradGradGradGradGradGradGradGradGradGrad
 Berny optimization.
 Initialization pass.
                           ----------------------------
                           !    Initial Parameters    !
                           ! (Angstroms and Degrees)  !
 --------------------------                            --------------------------
 ! Name  Definition              Value          Derivative Info.                !
 --------------------------------------------------------------------------------
 ! R1    R(1,2)                  1.99           calculate D2E/DX2 analytically  !
 ! R2    R(1,5)                  1.99           calculate D2E/DX2 analytically  !
 ! R3    R(1,8)                  2.28           calculate D2E/DX2 analytically  !
 ! R4    R(1,9)                  2.28           calculate D2E/DX2 analytically  !
 ! R5    R(1,10)                 1.95           calculate D2E/DX2 analytically  !
 ! R6    R(2,3)                  1.0            calculate D2E/DX2 analytically  !
 ! R7    R(2,4)                  1.0            calculate D2E/DX2 analytically  !
 ! R8    R(2,13)                 1.0            calculate D2E/DX2 analytically  !
 ! R9    R(5,6)                  1.0            calculate D2E/DX2 analytically  !
 ! R10   R(5,7)                  1.0            calculate D2E/DX2 analytically  !
 ! R11   R(5,14)                 1.0            calculate D2E/DX2 analytically  !
 ! R12   R(10,11)                0.96           calculate D2E/DX2 analytically  !
 ! R13   R(10,12)                0.96           calculate D2E/DX2 analytically  !
 ! A1    A(2,1,5)               90.0            calculate D2E/DX2 analytically  !
 ! A2    A(2,1,8)               90.0            calculate D2E/DX2 analytically  !
 ! A3    A(2,1,10)              90.0            calculate D2E/DX2 analytically  !
 ! A4    A(5,1,8)              120.0            calculate D2E/DX2 analytically  !
 ! A5    A(5,1,9)               90.0            calculate D2E/DX2 analytically  !
 ! A6    A(5,1,10)             120.0            calculate D2E/DX2 analytically  !
 ! A7    A(8,1,9)               90.0            calculate D2E/DX2 analytically  !
 ! A8    A(8,1,10)             120.0            calculate D2E/DX2 analytically  !
 ! A9    A(9,1,10)              90.0            calculate D2E/DX2 analytically  !
 ! A10   A(1,2,3)              109.4712         calculate D2E/DX2 analytically  !
 ! A11   A(1,2,4)              109.4712         calculate D2E/DX2 analytically  !
 ! A12   A(1,2,13)             109.4712         calculate D2E/DX2 analytically  !
 ! A13   A(3,2,4)              109.4712         calculate D2E/DX2 analytically  !
 ! A14   A(3,2,13)             109.4712         calculate D2E/DX2 analytically  !
 ! A15   A(4,2,13)             109.4712         calculate D2E/DX2 analytically  !
 ! A16   A(1,5,6)              109.4712         calculate D2E/DX2 analytically  !
 ! A17   A(1,5,7)              109.4712         calculate D2E/DX2 analytically  !
 ! A18   A(1,5,14)             109.4712         calculate D2E/DX2 analytically  !
 ! A19   A(6,5,7)              109.4712         calculate D2E/DX2 analytically  !
 ! A20   A(6,5,14)             109.4712         calculate D2E/DX2 analytically  !
 ! A21   A(7,5,14)             109.4712         calculate D2E/DX2 analytically  !
 ! A22   A(1,10,11)            109.4712         calculate D2E/DX2 analytically  !
 ! A23   A(1,10,12)            109.4712         calculate D2E/DX2 analytically  !
 ! A24   A(11,10,12)           109.4712         calculate D2E/DX2 analytically  !
 ! A25   L(2,1,9,5,-1)         180.0            calculate D2E/DX2 analytically  !
 ! A26   L(2,1,9,5,-2)         180.0            calculate D2E/DX2 analytically  !
 ! D1    D(5,1,2,3)           -180.0            calculate D2E/DX2 analytically  !
 ! D2    D(5,1,2,4)            -60.0            calculate D2E/DX2 analytically  !
 ! D3    D(5,1,2,13)            60.0            calculate D2E/DX2 analytically  !
 ! D4    D(8,1,2,3)             60.0            calculate D2E/DX2 analytically  !
 ! D5    D(8,1,2,4)           -180.0            calculate D2E/DX2 analytically  !
 ! D6    D(8,1,2,13)           -60.0            calculate D2E/DX2 analytically  !
 ! D7    D(10,1,2,3)           -60.0            calculate D2E/DX2 analytically  !
 ! D8    D(10,1,2,4)            60.0            calculate D2E/DX2 analytically  !
 ! D9    D(10,1,2,13)         -180.0            calculate D2E/DX2 analytically  !
 ! D10   D(2,1,5,6)            122.8326         calculate D2E/DX2 analytically  !
 ! D11   D(2,1,5,7)           -117.1674         calculate D2E/DX2 analytically  !
 ! D12   D(2,1,5,14)             2.8326         calculate D2E/DX2 analytically  !
 ! D13   D(8,1,5,6)           -147.1674         calculate D2E/DX2 analytically  !
 ! D14   D(8,1,5,7)            -27.1674         calculate D2E/DX2 analytically  !
 ! D15   D(8,1,5,14)            92.8326         calculate D2E/DX2 analytically  !
 ! D16   D(9,1,5,6)            -57.1674         calculate D2E/DX2 analytically  !
 ! D17   D(9,1,5,7)             62.8326         calculate D2E/DX2 analytically  !
 ! D18   D(9,1,5,14)          -177.1674         calculate D2E/DX2 analytically  !
 ! D19   D(10,1,5,6)            32.8326         calculate D2E/DX2 analytically  !
 ! D20   D(10,1,5,7)           152.8326         calculate D2E/DX2 analytically  !
 ! D21   D(10,1,5,14)          -87.1674         calculate D2E/DX2 analytically  !
 ! D22   D(2,1,10,11)          -89.1053         calculate D2E/DX2 analytically  !
 ! D23   D(2,1,10,12)          150.8947         calculate D2E/DX2 analytically  !
 ! D24   D(5,1,10,11)            0.8947         calculate D2E/DX2 analytically  !
 ! D25   D(5,1,10,12)         -119.1053         calculate D2E/DX2 analytically  !
 ! D26   D(8,1,10,11)         -179.1053         calculate D2E/DX2 analytically  !
 ! D27   D(8,1,10,12)           60.8947         calculate D2E/DX2 analytically  !
 ! D28   D(9,1,10,11)           90.8947         calculate D2E/DX2 analytically  !
 ! D29   D(9,1,10,12)          -29.1053         calculate D2E/DX2 analytically  !
 --------------------------------------------------------------------------------
 Trust Radius=3.00D-01 FncErr=1.00D-07 GrdErr=1.00D-06
 Number of steps in this run=     78 maximum allowed number of steps=    100.
 Search for a saddle point of order  1.
 GradGradGradGradGradGradGradGradGradGradGradGradGradGradGradGradGradGrad

 Leave Link  103 at Wed Dec 23 10:09:34 2020, MaxMem=  4026531840 cpu:         0.1
 (Enter /home/scicons/Gaussian09D/Gaussian09.D01/l202.exe)
                          Input orientation:                          
 ---------------------------------------------------------------------
 Center     Atomic      Atomic             Coordinates (Angstroms)
 Number     Number       Type             X           Y           Z
 ---------------------------------------------------------------------
      1         78           0        0.615764    0.369332   -0.009671
      2          7           0        0.615764    0.369332    1.980329
      3          1           0        1.087168   -0.447165    2.313662
      4          1           0        1.087168    1.185828    2.313662
      5          7           0       -0.379236    2.092722   -0.009671
      6          1           0        0.140165    2.777499   -0.520849
      7          1           0       -1.272321    1.962000   -0.440150
      8         17           0       -0.524236   -1.605206   -0.009671
      9         17           0        0.615764    0.369332   -2.289671
     10          8           0        2.565764    0.369332   -0.009671
     11          1           0        2.885764    1.274318    0.004462
     12          1           0        2.885764   -0.070922   -0.800479
     13          1           0       -0.327046    0.369331    2.313662
     14          1           0       -0.505553    2.404693    0.931986
 ---------------------------------------------------------------------
                    Distance matrix (angstroms):
                    1          2          3          4          5
     1  Pt   0.000000
     2  N    1.990000   0.000000
     3  H    2.507343   1.000000   0.000000
     4  H    2.507343   1.000000   1.632993   0.000000
     5  N    1.990000   2.814285   3.741557   2.893212   0.000000
     6  H    2.507343   3.504477   4.396559   3.385954   1.000000
     7  H    2.507343   3.458348   4.353705   3.708519   1.000000
     8  Cl   2.280000   3.026301   3.055415   3.972956   3.700770
     9  Cl   2.280000   4.270000   4.698890   4.698890   3.026301
    10  O    1.950000   2.786144   2.872418   2.872419   3.412199
    11  H    2.443788   3.142602   3.395711   2.928341   3.366038
    12  H    2.443788   3.616575   3.615851   3.809494   3.995868
    13  H    2.507343   1.000000   1.632993   1.632993   2.893212
    14  H    2.507343   2.549328   3.546673   2.435451   1.000000
                    6          7          8          9         10
     6  H    0.000000
     7  H    1.632993   0.000000
     8  Cl   4.462156   3.670137   0.000000
     9  Cl   3.025590   3.085803   3.224407   0.000000
    10  O    3.456024   4.177654   3.667001   3.000150   0.000000
    11  H    3.173928   4.237954   4.463178   3.351857   0.960000
    12  H    3.966107   4.642443   3.821977   2.750348   0.960000
    13  H    3.748601   3.318678   3.055415   4.698890   3.710286
    14  H    1.632993   1.632993   4.119024   3.972294   3.802947
                   11         12         13         14
    11  H    0.000000
    12  H    1.567673   0.000000
    13  H    4.058762   4.495980   0.000000
    14  H    3.693112   4.542151   2.466494   0.000000
 Stoichiometry    Cl2H8N2OPt
 Framework group  C1[X(Cl2H8N2OPt)]
 Deg. of freedom    36
 Full point group                 C1      NOp   1
 Largest Abelian subgroup         C1      NOp   1
 Largest concise Abelian subgroup C1      NOp   1
                         Standard orientation:                         
 ---------------------------------------------------------------------
 Center     Atomic      Atomic             Coordinates (Angstroms)
 Number     Number       Type             X           Y           Z
 ---------------------------------------------------------------------
      1         78           0       -0.112660   -0.142123   -0.012358
      2          7           0       -2.083384   -0.412798   -0.067861
      3          1           0       -2.457466    0.027513   -0.884065
      4          1           0       -2.284720   -1.391933   -0.095395
      5          7           0       -0.019835   -1.167191    1.690791
      6          1           0        0.605543   -1.939778    1.581188
      7          1           0        0.312327   -0.570501    2.421290
      8         17           0       -0.424061    2.116081    0.031748
      9         17           0        2.145256    0.167997    0.051232
     10          8           0        0.062712   -1.069017   -1.718996
     11          1           0        0.173229   -2.009686   -1.562382
     12          1           0        0.828067   -0.730878   -2.189628
     13          1           0       -2.498279   -0.009990    0.747988
     14          1           0       -0.930730   -1.506405    1.925750
 ---------------------------------------------------------------------
 Rotational constants (GHZ):      1.5679436      1.4093889      1.0881388
 Leave Link  202 at Wed Dec 23 10:09:34 2020, MaxMem=  4026531840 cpu:         0.1
 (Enter /home/scicons/Gaussian09D/Gaussian09.D01/l301.exe)
 Standard basis: def2TZVP (5D, 7F)
 Ernie: Thresh=  0.10000D-02 Tol=  0.10000D-05 Strict=F.
 There are   286 symmetry adapted cartesian basis functions of A   symmetry.
 There are   255 symmetry adapted basis functions of A   symmetry.
   255 basis functions,   430 primitive gaussians,   286 cartesian basis functions
    41 alpha electrons       41 beta electrons
       nuclear repulsion energy       565.9239616751 Hartrees.
 IExCor=  402 DFT=T Ex+Corr=B3LYP ExCW=0 ScaHFX=  0.200000
 ScaDFX=  0.800000  0.720000  1.000000  0.810000 ScalE2=  1.000000  1.000000
 IRadAn=      0 IRanWt=     -1 IRanGd=            0 ICorTp=0 IEmpDi=141
 NAtoms=   14 NActive=   14 NUniq=   14 SFac= 1.00D+00 NAtFMM=   60 NAOKFM=F Big=F
 Integral buffers will be    131072 words long.
 Raffenetti 2 integral format.
 Two-electron integral symmetry is turned on.
 R6Disp:  Grimme-D3(BJ) Dispersion energy=       -0.0301072688 Hartrees.
 Nuclear repulsion after empirical dispersion term =      565.8938544063 Hartrees.
 Force inversion solution in PCM.
 ------------------------------------------------------------------------------
 Polarizable Continuum Model (PCM)
 =================================
 Model                : PCM (using non-symmetric T matrix).
 Atomic radii         : SMD-Coulomb.
 Polarization charges : Total charges.
 Charge compensation  : None.
 Solution method      : Matrix inversion.
 Cavity type          : VdW (van der Waals Surface) (Alpha=1.000).
 Cavity algorithm     : GePol (No added spheres)
                        Default sphere list used, NSphG=   14.
                        Lebedev-Laikov grids with approx.  5.0 points / Ang**2.
                        Smoothing algorithm: Karplus/York (Gamma=1.0000).
                        Polarization charges: spherical gaussians, with
                                              point-specific exponents (IZeta= 3).
                        Self-potential: point-specific (ISelfS= 7).
                        Self-field    : sphere-specific E.n sum rule (ISelfD= 2).
 1st derivatives      : Analytical E(r).r(x)/FMM algorithm (CHGder, D1EAlg=3).
                        Cavity 1st derivative terms included.
 2nd derivatives      : Analytical E(r).r(xy)/FMM algorithm (CHGder, D2EAlg=3).
                        Cavity 2nd derivative terms included.
 Solvent              : Water, Eps=  78.355300 Eps(inf)=   1.777849
 ------------------------------------------------------------------------------
 Spheres list:
 ISph  on   Nord     Re0    Alpha      Xe            Ye            Ze
    1  Pt      1    1.7500  1.000     -0.112660     -0.142123     -0.012358
    2   N      2    1.8900  1.000     -2.083384     -0.412798     -0.067861
    3   H      3    1.2000  1.000     -2.457466      0.027513     -0.884065
    4   H      4    1.2000  1.000     -2.284720     -1.391933     -0.095395
    5   N      5    1.8900  1.000     -0.019835     -1.167191      1.690791
    6   H      6    1.2000  1.000      0.605543     -1.939778      1.581188
    7   H      7    1.2000  1.000      0.312327     -0.570501      2.421290
    8  Cl      8    2.3800  1.000     -0.424061      2.116081      0.031748
    9  Cl      9    2.3800  1.000      2.145256      0.167997      0.051232
   10   O     10    1.5200  1.000      0.062712     -1.069017     -1.718996
   11   H     11    1.2000  1.000      0.173229     -2.009686     -1.562382
   12   H     12    1.2000  1.000      0.828067     -0.730878     -2.189628
   13   H     13    1.2000  1.000     -2.498279     -0.009990      0.747988
   14   H     14    1.2000  1.000     -0.930730     -1.506405      1.925750
 ------------------------------------------------------------------------------
 GePol: Number of generator spheres                  =      14
 GePol: Total number of spheres                      =      14
 GePol: Number of exposed spheres                    =      14 (100.00%)
 GePol: Number of points                             =    1379
 GePol: Average weight of points                     =       0.13
 GePol: Minimum weight of points                     =   0.15D-08
 GePol: Maximum weight of points                     =    0.21991
 GePol: Number of points with low weight             =      47
 GePol: Fraction of low-weight points (<1% of avg)   =       3.41%
 GePol: Cavity surface area                          =    181.918 Ang**2
 GePol: Cavity volume                                =    168.825 Ang**3
 ------------------------------------------------------------------------------
 Atomic radii for non-electrostatic terms: SMD-CDS.
 ------------------------------------------------------------------------------
 PCM non-electrostatic energy =         0.0089674781 Hartrees.
 Nuclear repulsion after PCM non-electrostatic terms =      565.9028218844 Hartrees.
 Leave Link  301 at Wed Dec 23 10:09:34 2020, MaxMem=  4026531840 cpu:         1.5
 (Enter /home/scicons/Gaussian09D/Gaussian09.D01/l302.exe)
 NPDir=0 NMtPBC=     1 NCelOv=     1 NCel=       1 NClECP=     1 NCelD=      1
         NCelK=      1 NCelE2=     1 NClLst=     1 CellRange=     0.0.
 One-electron integrals computed using PRISM.
   1 Symmetry operations used in ECPInt.
 ECPInt:  NShTT=    5565 NPrTT=   17197 LenC2=    5418 LenP2D=   13006.
 LDataN:  DoStor=T MaxTD1= 8 Len=  415
 NBasis=   255 RedAO= T EigKep=  2.48D-03  NBF=   255
 NBsUse=   255 1.00D-06 EigRej= -1.00D+00 NBFU=   255
 Precomputing XC quadrature grid using
 IXCGrd= 4 IRadAn=           0 IRanWt=          -1 IRanGd=           0 AccXCQ= 0.00D+00.
 Defaulting to unpruned grid for atomic number  78.
 Generated NRdTot=       0 NPtTot=           0 NUsed=           0 NTot=          32
 NSgBfM=   284   284   284   284   284 MxSgAt=    14 MxSgA2=    14.
 Leave Link  302 at Wed Dec 23 10:09:35 2020, MaxMem=  4026531840 cpu:         8.3
 (Enter /home/scicons/Gaussian09D/Gaussian09.D01/l303.exe)
 DipDrv:  MaxL=1.
 Leave Link  303 at Wed Dec 23 10:09:35 2020, MaxMem=  4026531840 cpu:         0.6
 (Enter /home/scicons/Gaussian09D/Gaussian09.D01/l401.exe)
 ExpMin= 4.92D-02 ExpMax= 6.95D+04 ExpMxC= 2.37D+03 IAcc=2 IRadAn=         4 AccDes= 0.00D+00
 Harris functional with IExCor=  402 and IRadAn=       4 diagonalized for initial guess.
 HarFok:  IExCor=  402 AccDes= 0.00D+00 IRadAn=         4 IDoV= 1 UseB2=F ITyADJ=14
 ICtDFT=  3500011 ScaDFX=  1.000000  1.000000  1.000000  1.000000
 Defaulting to unpruned grid for atomic number  78.
 Defaulting to unpruned grid for atomic number  78.
 Defaulting to unpruned grid for atomic number  78.
 Defaulting to unpruned grid for atomic number  78.
 Defaulting to unpruned grid for atomic number  78.
 Defaulting to unpruned grid for atomic number  78.
 Defaulting to unpruned grid for atomic number  78.
 Defaulting to unpruned grid for atomic number  78.
 Defaulting to unpruned grid for atomic number  78.
 Defaulting to unpruned grid for atomic number  78.
 Defaulting to unpruned grid for atomic number  78.
 Defaulting to unpruned grid for atomic number  78.
 Defaulting to unpruned grid for atomic number  78.
 Defaulting to unpruned grid for atomic number  78.
 Defaulting to unpruned grid for atomic number  78.
 Defaulting to unpruned grid for atomic number  78.
 Defaulting to unpruned grid for atomic number  78.
 Defaulting to unpruned grid for atomic number  78.
 Defaulting to unpruned grid for atomic number  78.
 Defaulting to unpruned grid for atomic number  78.
 Defaulting to unpruned grid for atomic number  78.
 Defaulting to unpruned grid for atomic number  78.
 Defaulting to unpruned grid for atomic number  78.
 Defaulting to unpruned grid for atomic number  78.
 FoFCou: FMM=F IPFlag=           0 FMFlag=      100000 FMFlg1=           0
         NFxFlg=           0 DoJE=T BraDBF=F KetDBF=T FulRan=T
         wScrn=  0.000000 ICntrl=     500 IOpCl=  0 I1Cent=   200000004 NGrid=           0
         NMat0=    1 NMatS0=      1 NMatT0=    0 NMatD0=    1 NMtDS0=    0 NMtDT0=    0
 Petite list used in FoFCou.
 Harris En= -1229.08489880338    
 JPrj=0 DoOrth=F DoCkMO=F.
 Leave Link  401 at Wed Dec 23 10:09:35 2020, MaxMem=  4026531840 cpu:         6.8
 (Enter /home/scicons/Gaussian09D/Gaussian09.D01/l502.exe)
 Closed shell SCF:
 Using DIIS extrapolation, IDIIS=  1040.
 Integral symmetry usage will be decided dynamically.
 Keep R1 ints in memory in canonical form, NReq=544793834.
 IVT=      272906 IEndB=      272906 NGot=  4026531840 MDV=  3493557815
 LenX=  3493557815 LenY=  3493475578
 Requested convergence on RMS density matrix=1.00D-08 within 128 cycles.
 Requested convergence on MAX density matrix=1.00D-06.
 Requested convergence on             energy=1.00D-06.
 No special actions if energy rises.
 FoFCou: FMM=F IPFlag=           0 FMFlag=           0 FMFlg1=           0
         NFxFlg=           0 DoJE=F BraDBF=F KetDBF=F FulRan=T
         wScrn=  0.000000 ICntrl=     600 IOpCl=  0 I1Cent=           0 NGrid=           0
         NMat0=    1 NMatS0=  32640 NMatT0=    0 NMatD0=    1 NMtDS0=    0 NMtDT0=    0
 Symmetry not used in FoFCou.

 Cycle   1  Pass 1  IDiag  1:
 Defaulting to unpruned grid for atomic number  78.
 Defaulting to unpruned grid for atomic number  78.
 Defaulting to unpruned grid for atomic number  78.
 Defaulting to unpruned grid for atomic number  78.
 Defaulting to unpruned grid for atomic number  78.
 Defaulting to unpruned grid for atomic number  78.
 Defaulting to unpruned grid for atomic number  78.
 Defaulting to unpruned grid for atomic number  78.
 Defaulting to unpruned grid for atomic number  78.
 Defaulting to unpruned grid for atomic number  78.
 Defaulting to unpruned grid for atomic number  78.
 Defaulting to unpruned grid for atomic number  78.
 Defaulting to unpruned grid for atomic number  78.
 Defaulting to unpruned grid for atomic number  78.
 Defaulting to unpruned grid for atomic number  78.
 Defaulting to unpruned grid for atomic number  78.
 Defaulting to unpruned grid for atomic number  78.
 Defaulting to unpruned grid for atomic number  78.
 Defaulting to unpruned grid for atomic number  78.
 Defaulting to unpruned grid for atomic number  78.
 Defaulting to unpruned grid for atomic number  78.
 Defaulting to unpruned grid for atomic number  78.
 Defaulting to unpruned grid for atomic number  78.
 Defaulting to unpruned grid for atomic number  78.
 Inv3:  Mode=1 IEnd=     5704923.
 Iteration    1 A*A^-1 deviation from unit magnitude is 4.44D-15 for   1346.
 Iteration    1 A*A^-1 deviation from orthogonality  is 2.97D-15 for   1369   1041.
 Iteration    1 A^-1*A deviation from unit magnitude is 4.22D-15 for   1346.
 Iteration    1 A^-1*A deviation from orthogonality  is 1.11D-14 for    541    508.
 E= -1229.17038656727    
 DIIS: error= 2.88D-02 at cycle   1 NSaved=   1.
 NSaved= 1 IEnMin= 1 EnMin= -1229.17038656727     IErMin= 1 ErrMin= 2.88D-02
 ErrMax= 2.88D-02  0.00D+00 EMaxC= 1.00D-01 BMatC= 6.31D-01 BMatP= 6.31D-01
 IDIUse=3 WtCom= 7.12D-01 WtEn= 2.88D-01
 Coeff-Com:  0.100D+01
 Coeff-En:   0.100D+01
 Coeff:      0.100D+01
 Gap=     0.296 Goal=   None    Shift=    0.000
 GapD=    0.296 DampG=1.000 DampE=0.250 DampFc=0.2500 IDamp=-1.
 Damping current iteration by 2.50D-01
 RMSDP=5.23D-03 MaxDP=3.43D-01              OVMax= 4.06D-01

 Cycle   2  Pass 1  IDiag  1:
 E= -1229.31827969276     Delta-E=       -0.147893125490 Rises=F Damp=T
 DIIS: error= 1.38D-02 at cycle   2 NSaved=   2.
 NSaved= 2 IEnMin= 2 EnMin= -1229.31827969276     IErMin= 2 ErrMin= 1.38D-02
 ErrMax= 1.38D-02  0.00D+00 EMaxC= 1.00D-01 BMatC= 1.01D-01 BMatP= 6.31D-01
 IDIUse=3 WtCom= 8.62D-01 WtEn= 1.38D-01
 Coeff-Com: -0.515D+00 0.152D+01
 Coeff-En:   0.000D+00 0.100D+01
 Coeff:     -0.444D+00 0.144D+01
 Gap=     0.143 Goal=   None    Shift=    0.000
 RMSDP=1.24D-03 MaxDP=6.81D-02 DE=-1.48D-01 OVMax= 2.93D-01

 Cycle   3  Pass 1  IDiag  1:
 E= -1229.55039829252     Delta-E=       -0.232118599760 Rises=F Damp=F
 DIIS: error= 3.58D-03 at cycle   3 NSaved=   3.
 NSaved= 3 IEnMin= 3 EnMin= -1229.55039829252     IErMin= 3 ErrMin= 3.58D-03
 ErrMax= 3.58D-03  0.00D+00 EMaxC= 1.00D-01 BMatC= 8.68D-03 BMatP= 1.01D-01
 IDIUse=3 WtCom= 9.64D-01 WtEn= 3.58D-02
 Coeff-Com: -0.183D+00 0.458D+00 0.724D+00
 Coeff-En:   0.000D+00 0.000D+00 0.100D+01
 Coeff:     -0.176D+00 0.442D+00 0.734D+00
 Gap=     0.129 Goal=   None    Shift=    0.000
 RMSDP=6.80D-04 MaxDP=1.96D-02 DE=-2.32D-01 OVMax= 3.09D-02

 Cycle   4  Pass 1  IDiag  1:
 E= -1229.55342893764     Delta-E=       -0.003030645119 Rises=F Damp=F
 DIIS: error= 3.69D-03 at cycle   4 NSaved=   4.
 NSaved= 4 IEnMin= 4 EnMin= -1229.55342893764     IErMin= 3 ErrMin= 3.58D-03
 ErrMax= 3.69D-03  0.00D+00 EMaxC= 1.00D-01 BMatC= 5.70D-03 BMatP= 8.68D-03
 IDIUse=3 WtCom= 9.63D-01 WtEn= 3.69D-02
 Coeff-Com: -0.511D-01 0.103D+00 0.454D+00 0.494D+00
 Coeff-En:   0.000D+00 0.000D+00 0.388D+00 0.612D+00
 Coeff:     -0.492D-01 0.995D-01 0.452D+00 0.498D+00
 Gap=     0.124 Goal=   None    Shift=    0.000
 RMSDP=2.71D-04 MaxDP=8.20D-03 DE=-3.03D-03 OVMax= 1.39D-02

 Cycle   5  Pass 1  IDiag  1:
 E= -1229.55768946149     Delta-E=       -0.004260523847 Rises=F Damp=F
 DIIS: error= 4.73D-04 at cycle   5 NSaved=   5.
 NSaved= 5 IEnMin= 5 EnMin= -1229.55768946149     IErMin= 5 ErrMin= 4.73D-04
 ErrMax= 4.73D-04  0.00D+00 EMaxC= 1.00D-01 BMatC= 1.17D-04 BMatP= 5.70D-03
 IDIUse=3 WtCom= 9.95D-01 WtEn= 4.73D-03
 Coeff-Com: -0.187D-01 0.359D-01 0.188D+00 0.225D+00 0.570D+00
 Coeff-En:   0.000D+00 0.000D+00 0.000D+00 0.000D+00 0.100D+01
 Coeff:     -0.186D-01 0.357D-01 0.187D+00 0.224D+00 0.573D+00
 Gap=     0.123 Goal=   None    Shift=    0.000
 RMSDP=5.43D-05 MaxDP=2.25D-03 DE=-4.26D-03 OVMax= 3.09D-03

 Cycle   6  Pass 1  IDiag  1:
 E= -1229.55777577007     Delta-E=       -0.000086308580 Rises=F Damp=F
 DIIS: error= 1.72D-04 at cycle   6 NSaved=   6.
 NSaved= 6 IEnMin= 6 EnMin= -1229.55777577007     IErMin= 6 ErrMin= 1.72D-04
 ErrMax= 1.72D-04  0.00D+00 EMaxC= 1.00D-01 BMatC= 1.81D-05 BMatP= 1.17D-04
 IDIUse=3 WtCom= 9.98D-01 WtEn= 1.72D-03
 Coeff-Com: -0.365D-03-0.160D-02 0.245D-01 0.317D-01 0.284D+00 0.662D+00
 Coeff-En:   0.000D+00 0.000D+00 0.000D+00 0.000D+00 0.758D-01 0.924D+00
 Coeff:     -0.364D-03-0.160D-02 0.245D-01 0.317D-01 0.284D+00 0.662D+00
 Gap=     0.123 Goal=   None    Shift=    0.000
 RMSDP=1.49D-05 MaxDP=6.80D-04 DE=-8.63D-05 OVMax= 9.90D-04

 Cycle   7  Pass 1  IDiag  1:
 E= -1229.55778830428     Delta-E=       -0.000012534211 Rises=F Damp=F
 DIIS: error= 2.25D-05 at cycle   7 NSaved=   7.
 NSaved= 7 IEnMin= 7 EnMin= -1229.55778830428     IErMin= 7 ErrMin= 2.25D-05
 ErrMax= 2.25D-05  0.00D+00 EMaxC= 1.00D-01 BMatC= 2.39D-07 BMatP= 1.81D-05
 IDIUse=1 WtCom= 1.00D+00 WtEn= 0.00D+00
 Coeff-Com:  0.447D-03-0.121D-02 0.190D-02 0.232D-02 0.627D-01 0.166D+00
 Coeff-Com:  0.767D+00
 Coeff:      0.447D-03-0.121D-02 0.190D-02 0.232D-02 0.627D-01 0.166D+00
 Coeff:      0.767D+00
 Gap=     0.123 Goal=   None    Shift=    0.000
 RMSDP=3.55D-06 MaxDP=1.85D-04 DE=-1.25D-05 OVMax= 2.04D-04

 Cycle   8  Pass 1  IDiag  1:
 E= -1229.55778843213     Delta-E=       -0.000000127850 Rises=F Damp=F
 DIIS: error= 1.93D-05 at cycle   8 NSaved=   8.
 NSaved= 8 IEnMin= 8 EnMin= -1229.55778843213     IErMin= 8 ErrMin= 1.93D-05
 ErrMax= 1.93D-05  0.00D+00 EMaxC= 1.00D-01 BMatC= 1.37D-07 BMatP= 2.39D-07
 IDIUse=1 WtCom= 1.00D+00 WtEn= 0.00D+00
 Coeff-Com:  0.324D-03-0.413D-03-0.288D-02-0.397D-02-0.929D-02-0.135D-01
 Coeff-Com:  0.453D+00 0.576D+00
 Coeff:      0.324D-03-0.413D-03-0.288D-02-0.397D-02-0.929D-02-0.135D-01
 Coeff:      0.453D+00 0.576D+00
 Gap=     0.123 Goal=   None    Shift=    0.000
 RMSDP=1.46D-06 MaxDP=5.75D-05 DE=-1.28D-07 OVMax= 1.12D-04

 Cycle   9  Pass 1  IDiag  1:
 E= -1229.55778854119     Delta-E=       -0.000000109057 Rises=F Damp=F
 DIIS: error= 2.19D-06 at cycle   9 NSaved=   9.
 NSaved= 9 IEnMin= 9 EnMin= -1229.55778854119     IErMin= 9 ErrMin= 2.19D-06
 ErrMax= 2.19D-06  0.00D+00 EMaxC= 1.00D-01 BMatC= 4.18D-09 BMatP= 1.37D-07
 IDIUse=1 WtCom= 1.00D+00 WtEn= 0.00D+00
 Coeff-Com:  0.127D-03-0.137D-03-0.151D-02-0.210D-02-0.719D-02-0.131D-01
 Coeff-Com:  0.189D+00 0.275D+00 0.560D+00
 Coeff:      0.127D-03-0.137D-03-0.151D-02-0.210D-02-0.719D-02-0.131D-01
 Coeff:      0.189D+00 0.275D+00 0.560D+00
 Gap=     0.123 Goal=   None    Shift=    0.000
 RMSDP=3.45D-07 MaxDP=1.45D-05 DE=-1.09D-07 OVMax= 1.97D-05

 Cycle  10  Pass 1  IDiag  1:
 E= -1229.55778854467     Delta-E=       -0.000000003482 Rises=F Damp=F
 DIIS: error= 7.97D-07 at cycle  10 NSaved=  10.
 NSaved=10 IEnMin=10 EnMin= -1229.55778854467     IErMin=10 ErrMin= 7.97D-07
 ErrMax= 7.97D-07  0.00D+00 EMaxC= 1.00D-01 BMatC= 3.09D-10 BMatP= 4.18D-09
 IDIUse=1 WtCom= 1.00D+00 WtEn= 0.00D+00
 Coeff-Com: -0.119D-04 0.224D-04-0.103D-03-0.165D-03-0.114D-02-0.216D-02
 Coeff-Com: -0.406D-02 0.680D-02 0.202D+00 0.799D+00
 Coeff:     -0.119D-04 0.224D-04-0.103D-03-0.165D-03-0.114D-02-0.216D-02
 Coeff:     -0.406D-02 0.680D-02 0.202D+00 0.799D+00
 Gap=     0.123 Goal=   None    Shift=    0.000
 RMSDP=2.25D-07 MaxDP=1.10D-05 DE=-3.48D-09 OVMax= 1.86D-05

 Cycle  11  Pass 1  IDiag  1:
 E= -1229.55778854506     Delta-E=       -0.000000000388 Rises=F Damp=F
 DIIS: error= 1.77D-07 at cycle  11 NSaved=  11.
 NSaved=11 IEnMin=11 EnMin= -1229.55778854506     IErMin=11 ErrMin= 1.77D-07
 ErrMax= 1.77D-07  0.00D+00 EMaxC= 1.00D-01 BMatC= 2.76D-11 BMatP= 3.09D-10
 IDIUse=1 WtCom= 1.00D+00 WtEn= 0.00D+00
 Coeff-Com: -0.120D-04 0.162D-04 0.738D-04 0.902D-04 0.262D-04 0.490D-05
 Coeff-Com: -0.149D-01-0.164D-01 0.302D-01 0.298D+00 0.703D+00
 Coeff:     -0.120D-04 0.162D-04 0.738D-04 0.902D-04 0.262D-04 0.490D-05
 Coeff:     -0.149D-01-0.164D-01 0.302D-01 0.298D+00 0.703D+00
 Gap=     0.123 Goal=   None    Shift=    0.000
 RMSDP=5.27D-08 MaxDP=2.67D-06 DE=-3.88D-10 OVMax= 4.31D-06

 Cycle  12  Pass 1  IDiag  1:
 E= -1229.55778854509     Delta-E=       -0.000000000036 Rises=F Damp=F
 DIIS: error= 7.96D-08 at cycle  12 NSaved=  12.
 NSaved=12 IEnMin=12 EnMin= -1229.55778854509     IErMin=12 ErrMin= 7.96D-08
 ErrMax= 7.96D-08  0.00D+00 EMaxC= 1.00D-01 BMatC= 4.34D-12 BMatP= 2.76D-11
 IDIUse=1 WtCom= 1.00D+00 WtEn= 0.00D+00
 Coeff-Com: -0.205D-05 0.214D-05 0.409D-04 0.537D-04 0.157D-03 0.317D-03
 Coeff-Com: -0.534D-02-0.694D-02-0.126D-01 0.306D-01 0.290D+00 0.704D+00
 Coeff:     -0.205D-05 0.214D-05 0.409D-04 0.537D-04 0.157D-03 0.317D-03
 Coeff:     -0.534D-02-0.694D-02-0.126D-01 0.306D-01 0.290D+00 0.704D+00
 Gap=     0.123 Goal=   None    Shift=    0.000
 RMSDP=1.88D-08 MaxDP=9.43D-07 DE=-3.59D-11 OVMax= 1.88D-06

 Cycle  13  Pass 1  IDiag  1:
 E= -1229.55778854511     Delta-E=       -0.000000000019 Rises=F Damp=F
 DIIS: error= 4.70D-08 at cycle  13 NSaved=  13.
 NSaved=13 IEnMin=13 EnMin= -1229.55778854511     IErMin=13 ErrMin= 4.70D-08
 ErrMax= 4.70D-08  0.00D+00 EMaxC= 1.00D-01 BMatC= 9.61D-13 BMatP= 4.34D-12
 IDIUse=1 WtCom= 1.00D+00 WtEn= 0.00D+00
 Coeff-Com:  0.559D-06-0.116D-05 0.141D-04 0.204D-04 0.847D-04 0.175D-03
 Coeff-Com: -0.123D-02-0.186D-02-0.116D-01-0.223D-01 0.629D-01 0.385D+00
 Coeff-Com:  0.588D+00
 Coeff:      0.559D-06-0.116D-05 0.141D-04 0.204D-04 0.847D-04 0.175D-03
 Coeff:     -0.123D-02-0.186D-02-0.116D-01-0.223D-01 0.629D-01 0.385D+00
 Coeff:      0.588D+00
 Gap=     0.123 Goal=   None    Shift=    0.000
 RMSDP=6.07D-09 MaxDP=2.29D-07 DE=-1.93D-11 OVMax= 4.99D-07

 Error on total polarization charges =  0.02135
 SCF Done:  E(RB3LYP) =  -1229.55778855     A.U. after   13 cycles
            NFock= 13  Conv=0.61D-08     -V/T= 2.0697
 KE= 1.149419461335D+03 PE=-4.018223989438D+03 EE= 1.073343917674D+03
 SMD-CDS (non-electrostatic) energy       (kcal/mol) =       5.63
 (included in total energy above)
 Leave Link  502 at Wed Dec 23 10:09:54 2020, MaxMem=  4026531840 cpu:       201.8
 (Enter /home/scicons/Gaussian09D/Gaussian09.D01/l801.exe)
 DoSCS=F DFT=T ScalE2(SS,OS)=  1.000000  1.000000
 Range of M.O.s used for correlation:     1   255
 NBasis=   255 NAE=    41 NBE=    41 NFC=     0 NFV=     0
 NROrb=    255 NOA=    41 NOB=    41 NVA=   214 NVB=   214
 Leave Link  801 at Wed Dec 23 10:09:55 2020, MaxMem=  4026531840 cpu:         0.4
 (Enter /home/scicons/Gaussian09D/Gaussian09.D01/l1101.exe)
 Using compressed storage, NAtomX=    14.
 Will process     15 centers per pass.
   1 Symmetry operations used in ECPInt.
 ECPInt:  NShTT=    5565 NPrTT=   17197 LenC2=    5418 LenP2D=   13006.
 LDataN:  DoStor=T MaxTD1= 9 Len=  602
 R6Disp: Adding Grimme-D3(BJ) dispersion energy 1st derivatives to the gradient.
 Leave Link 1101 at Wed Dec 23 10:09:56 2020, MaxMem=  4026531840 cpu:        26.2
 (Enter /home/scicons/Gaussian09D/Gaussian09.D01/l1102.exe)
 Symmetrizing basis deriv contribution to polar:
 IMax=3 JMax=2 DiffMx= 0.00D+00
 Leave Link 1102 at Wed Dec 23 10:09:56 2020, MaxMem=  4026531840 cpu:         0.6
 (Enter /home/scicons/Gaussian09D/Gaussian09.D01/l1110.exe)
 Forming Gx(P) for the SCF density, NAtomX=    14.
 Integral derivatives from FoFJK, PRISM(SPDF).
 Do as many integral derivatives as possible in FoFJK.
 G2DrvN: MDV=    4026531624.
 G2DrvN: will do    15 centers at a time, making    1 passes.
 Calling FoFCou, ICntrl=  3107 FMM=F I1Cent=   0 AccDes= 0.00D+00.
 FoFJK:  IHMeth= 1 ICntrl=    3107 DoSepK=F KAlg= 0 I1Cent=   0 FoldK=F
 IRaf=         0 NMat=   1 IRICut=       1 DoRegI=T DoRafI=F ISym2E= 0.
 FoFCou: FMM=F IPFlag=           0 FMFlag=      100000 FMFlg1=           0
         NFxFlg=           0 DoJE=F BraDBF=F KetDBF=F FulRan=T
         wScrn=  0.000000 ICntrl=    3107 IOpCl=  0 I1Cent=           0 NGrid=           0
         NMat0=    1 NMatS0=      1 NMatT0=    0 NMatD0=    1 NMtDS0=    0 NMtDT0=    0
 Symmetry not used in FoFCou.
 Defaulting to unpruned grid for atomic number  78.
 Defaulting to unpruned grid for atomic number  78.
 Defaulting to unpruned grid for atomic number  78.
 Defaulting to unpruned grid for atomic number  78.
 Defaulting to unpruned grid for atomic number  78.
 Defaulting to unpruned grid for atomic number  78.
 Defaulting to unpruned grid for atomic number  78.
 Defaulting to unpruned grid for atomic number  78.
 Defaulting to unpruned grid for atomic number  78.
 Defaulting to unpruned grid for atomic number  78.
 Defaulting to unpruned grid for atomic number  78.
 Defaulting to unpruned grid for atomic number  78.
 Defaulting to unpruned grid for atomic number  78.
 Defaulting to unpruned grid for atomic number  78.
 Defaulting to unpruned grid for atomic number  78.
 Defaulting to unpruned grid for atomic number  78.
 Defaulting to unpruned grid for atomic number  78.
 Defaulting to unpruned grid for atomic number  78.
 Defaulting to unpruned grid for atomic number  78.
 Defaulting to unpruned grid for atomic number  78.
 Defaulting to unpruned grid for atomic number  78.
 Defaulting to unpruned grid for atomic number  78.
 Defaulting to unpruned grid for atomic number  78.
 Defaulting to unpruned grid for atomic number  78.
 NEqPCM:  Using equilibrium solvation (IEInf=0, Eps=  78.3553, EpsInf=   1.7778)
 G2PCM: DoFxE=T DoFxN=T DoGrad=T DoDP/DQ/DG/TGxP=FFFF NFrqRd=   0 IEInf=0 SqF1=F DoCFld=F IF1Alg=4.
 GePol: Maximum number of non-zero 1st derivatives   =     359
 End of G2Drv F.D. properties file   721 does not exist.
 End of G2Drv F.D. properties file   722 does not exist.
 End of G2Drv F.D. properties file   788 does not exist.
 Leave Link 1110 at Wed Dec 23 10:10:10 2020, MaxMem=  4026531840 cpu:       335.0
 (Enter /home/scicons/Gaussian09D/Gaussian09.D01/l1002.exe)
 Minotr:  Closed shell wavefunction.
          IDoAtm=11111111111111
 NEqPCM:  Using equilibrium solvation (IEInf=0, Eps=  78.3553, EpsInf=   1.7778)
          Direct CPHF calculation.
          Differentiating once with respect to electric field.
                with respect to dipole field.
          Differentiating once with respect to nuclear coordinates.
          Requested convergence is 1.0D-08 RMS, and 1.0D-07 maximum.
          Secondary convergence is 1.0D-12 RMS, and 1.0D-12 maximum.
          NewPWx=T KeepS1=F KeepF1=F KeepIn=T MapXYZ=F SortEE=F KeepMc=T.
          MDV=    4026531441 using IRadAn=       2.
 Defaulting to unpruned grid for atomic number  78.
 Generate precomputed XC quadrature information.
 Keep R1 ints in memory in canonical form, NReq=544526104.
 FoFCou: FMM=F IPFlag=           0 FMFlag=           0 FMFlg1=           0
         NFxFlg=           0 DoJE=F BraDBF=F KetDBF=F FulRan=T
         wScrn=  0.000000 ICntrl=     600 IOpCl=  0 I1Cent=           0 NGrid=           0
         NMat0=    1 NMatS0=  32640 NMatT0=    0 NMatD0=    1 NMtDS0=    0 NMtDT0=    0
 Symmetry not used in FoFCou.
          Solving linear equations simultaneously, MaxMat=       0.
 Defaulting to unpruned grid for atomic number  78.
 Defaulting to unpruned grid for atomic number  78.
 Defaulting to unpruned grid for atomic number  78.
 Defaulting to unpruned grid for atomic number  78.
 Defaulting to unpruned grid for atomic number  78.
 Defaulting to unpruned grid for atomic number  78.
 Defaulting to unpruned grid for atomic number  78.
 Defaulting to unpruned grid for atomic number  78.
 Defaulting to unpruned grid for atomic number  78.
 Defaulting to unpruned grid for atomic number  78.
 Defaulting to unpruned grid for atomic number  78.
 Defaulting to unpruned grid for atomic number  78.
 Defaulting to unpruned grid for atomic number  78.
 Defaulting to unpruned grid for atomic number  78.
 Defaulting to unpruned grid for atomic number  78.
 Defaulting to unpruned grid for atomic number  78.
 Defaulting to unpruned grid for atomic number  78.
 Defaulting to unpruned grid for atomic number  78.
 Defaulting to unpruned grid for atomic number  78.
 Defaulting to unpruned grid for atomic number  78.
 Defaulting to unpruned grid for atomic number  78.
 Defaulting to unpruned grid for atomic number  78.
 Defaulting to unpruned grid for atomic number  78.
 Defaulting to unpruned grid for atomic number  78.
          There are    45 degrees of freedom in the 1st order CPHF.  IDoFFX=6 NUNeed=     3.
     42 vectors produced by pass  0 Test12= 1.95D-14 2.22D-09 XBig12= 8.09D+01 3.90D+00.
 AX will form    42 AO Fock derivatives at one time.
     42 vectors produced by pass  1 Test12= 1.95D-14 2.22D-09 XBig12= 1.19D+01 5.86D-01.
     42 vectors produced by pass  2 Test12= 1.95D-14 2.22D-09 XBig12= 3.19D-01 8.95D-02.
     42 vectors produced by pass  3 Test12= 1.95D-14 2.22D-09 XBig12= 2.20D-03 7.35D-03.
     42 vectors produced by pass  4 Test12= 1.95D-14 2.22D-09 XBig12= 1.65D-05 7.94D-04.
     41 vectors produced by pass  5 Test12= 1.95D-14 2.22D-09 XBig12= 1.01D-07 4.25D-05.
     14 vectors produced by pass  6 Test12= 1.95D-14 2.22D-09 XBig12= 2.24D-10 1.80D-06.
      3 vectors produced by pass  7 Test12= 1.95D-14 2.22D-09 XBig12= 3.28D-13 6.11D-08.
      2 vectors produced by pass  8 Test12= 1.95D-14 2.22D-09 XBig12= 5.26D-16 3.67D-09.
      1 vectors produced by pass  9 Test12= 1.95D-14 2.22D-09 XBig12= 1.57D-16 2.41D-09.
 InvSVY:  IOpt=1 It=  1 EMax= 1.24D-14
 Solved reduced A of dimension   271 with    45 vectors.
 FullF1:  Do perturbations    1 to     3.
 Isotropic polarizability for W=    0.000000      118.87 Bohr**3.
 End of Minotr F.D. properties file   721 does not exist.
 End of Minotr F.D. properties file   722 does not exist.
 End of Minotr F.D. properties file   788 does not exist.
 Leave Link 1002 at Wed Dec 23 10:10:34 2020, MaxMem=  4026531840 cpu:       560.9
 (Enter /home/scicons/Gaussian09D/Gaussian09.D01/l601.exe)
 Copying SCF densities to generalized density rwf, IOpCl= 0 IROHF=0.

 **********************************************************************

            Population analysis using the SCF density.

 **********************************************************************

 Orbital symmetries:
       Occupied  (A) (A) (A) (A) (A) (A) (A) (A) (A) (A) (A) (A)
                 (A) (A) (A) (A) (A) (A) (A) (A) (A) (A) (A) (A)
                 (A) (A) (A) (A) (A) (A) (A) (A) (A) (A) (A) (A)
                 (A) (A) (A) (A) (A)
       Virtual   (A) (A) (A) (A) (A) (A) (A) (A) (A) (A) (A) (A)
                 (A) (A) (A) (A) (A) (A) (A) (A) (A) (A) (A) (A)
                 (A) (A) (A) (A) (A) (A) (A) (A) (A) (A) (A) (A)
                 (A) (A) (A) (A) (A) (A) (A) (A) (A) (A) (A) (A)
                 (A) (A) (A) (A) (A) (A) (A) (A) (A) (A) (A) (A)
                 (A) (A) (A) (A) (A) (A) (A) (A) (A) (A) (A) (A)
                 (A) (A) (A) (A) (A) (A) (A) (A) (A) (A) (A) (A)
                 (A) (A) (A) (A) (A) (A) (A) (A) (A) (A) (A) (A)
                 (A) (A) (A) (A) (A) (A) (A) (A) (A) (A) (A) (A)
                 (A) (A) (A) (A) (A) (A) (A) (A) (A) (A) (A) (A)
                 (A) (A) (A) (A) (A) (A) (A) (A) (A) (A) (A) (A)
                 (A) (A) (A) (A) (A) (A) (A) (A) (A) (A) (A) (A)
                 (A) (A) (A) (A) (A) (A) (A) (A) (A) (A) (A) (A)
                 (A) (A) (A) (A) (A) (A) (A) (A) (A) (A) (A) (A)
                 (A) (A) (A) (A) (A) (A) (A) (A) (A) (A) (A) (A)
                 (A) (A) (A) (A) (A) (A) (A) (A) (A) (A) (A) (A)
                 (A) (A) (A) (A) (A) (A) (A) (A) (A) (A) (A) (A)
                 (A) (A) (A) (A) (A) (A) (A) (A) (A) (A)
 The electronic state is 1-A.
 Alpha  occ. eigenvalues -- -101.44727-101.41748 -19.15997 -14.35516 -14.33206
 Alpha  occ. eigenvalues --   -9.38048  -9.35049  -7.13915  -7.13497  -7.13459
 Alpha  occ. eigenvalues --   -7.10845  -7.10530  -7.10508  -3.89382  -2.16204
 Alpha  occ. eigenvalues --   -2.13077  -2.12372  -1.05375  -0.91769  -0.89579
 Alpha  occ. eigenvalues --   -0.74715  -0.71687  -0.57619  -0.53493  -0.52516
 Alpha  occ. eigenvalues --   -0.50735  -0.49903  -0.47540  -0.43320  -0.40137
 Alpha  occ. eigenvalues --   -0.39619  -0.32568  -0.31772  -0.30464  -0.29466
 Alpha  occ. eigenvalues --   -0.26184  -0.24225  -0.22050  -0.20615  -0.15825
 Alpha  occ. eigenvalues --   -0.13836
 Alpha virt. eigenvalues --   -0.01504   0.01326   0.05179   0.06498   0.08112
 Alpha virt. eigenvalues --    0.10672   0.11417   0.11758   0.13606   0.14580
 Alpha virt. eigenvalues --    0.16209   0.18743   0.21084   0.21266   0.27039
 Alpha virt. eigenvalues --    0.28171   0.28997   0.30077   0.31322   0.32155
 Alpha virt. eigenvalues --    0.33162   0.34859   0.35299   0.37833   0.38368
 Alpha virt. eigenvalues --    0.39331   0.40345   0.40684   0.41422   0.42397
 Alpha virt. eigenvalues --    0.44188   0.45623   0.46623   0.47970   0.49365
 Alpha virt. eigenvalues --    0.49713   0.50392   0.51139   0.52579   0.53175
 Alpha virt. eigenvalues --    0.53379   0.56148   0.57079   0.57827   0.59144
 Alpha virt. eigenvalues --    0.60607   0.61285   0.65104   0.66045   0.70405
 Alpha virt. eigenvalues --    0.71049   0.73255   0.75685   0.77926   0.79556
 Alpha virt. eigenvalues --    0.86373   0.96149   0.99454   1.01353   1.01859
 Alpha virt. eigenvalues --    1.04545   1.05151   1.11399   1.14377   1.17195
 Alpha virt. eigenvalues --    1.23960   1.25060   1.26729   1.27691   1.32083
 Alpha virt. eigenvalues --    1.35106   1.36334   1.42543   1.44377   1.46642
 Alpha virt. eigenvalues --    1.47173   1.48664   1.49235   1.52595   1.54604
 Alpha virt. eigenvalues --    1.56630   1.57156   1.59171   1.59588   1.64678
 Alpha virt. eigenvalues --    1.66354   1.71434   1.74342   1.76765   1.77681
 Alpha virt. eigenvalues --    1.78551   1.80252   1.81691   1.82443   1.83125
 Alpha virt. eigenvalues --    1.84102   1.85754   1.86596   1.90686   1.91634
 Alpha virt. eigenvalues --    1.94347   1.95167   1.96855   1.98569   2.00121
 Alpha virt. eigenvalues --    2.00770   2.10289   2.12715   2.13597   2.14239
 Alpha virt. eigenvalues --    2.14749   2.15245   2.15610   2.16779   2.17148
 Alpha virt. eigenvalues --    2.17331   2.18254   2.18963   2.20385   2.21538
 Alpha virt. eigenvalues --    2.23806   2.24974   2.27382   2.28641   2.30203
 Alpha virt. eigenvalues --    2.31817   2.32120   2.32974   2.35099   2.36094
 Alpha virt. eigenvalues --    2.37572   2.39825   2.42526   2.45486   2.47159
 Alpha virt. eigenvalues --    2.48918   2.50291   2.52203   2.52751   2.56904
 Alpha virt. eigenvalues --    2.58388   2.59456   2.62658   2.64294   2.65837
 Alpha virt. eigenvalues --    2.67797   2.72455   2.74907   2.85294   2.88953
 Alpha virt. eigenvalues --    2.93204   3.03819   3.12199   3.17584   3.19825
 Alpha virt. eigenvalues --    3.21586   3.22019   3.24510   3.32500   3.42232
 Alpha virt. eigenvalues --    3.68028   3.97902   4.15118   4.21104   4.29450
 Alpha virt. eigenvalues --    4.31470   4.33699   4.37858   4.41212   4.43110
 Alpha virt. eigenvalues --    4.64561   4.64753   4.68559   4.69777   4.86351
 Alpha virt. eigenvalues --    4.86554   4.87497   4.91898   5.03682   5.06659
 Alpha virt. eigenvalues --    5.12798   5.23566   5.35096   5.36398   5.37066
 Alpha virt. eigenvalues --    5.37954   5.38430   5.40715   5.49011   5.80552
 Alpha virt. eigenvalues --    5.83140   5.97605   6.24762   6.43297   6.46618
 Alpha virt. eigenvalues --    6.64808   6.95054   6.98171  10.76869  10.77241
 Alpha virt. eigenvalues --   10.80978  10.81738  10.95983  11.00040  24.86388
 Alpha virt. eigenvalues --   25.14677  31.52158  31.59041  31.68680  32.09209
 Alpha virt. eigenvalues --   32.41118  43.40387  52.00951 282.34168
          Condensed to atoms (all electrons):
               1          2          3          4          5          6
     1  Pt  17.780285   0.105593  -0.018306  -0.036035  -0.061165  -0.055780
     2  N    0.105593   6.346975   0.361460   0.365770  -0.015657   0.000025
     3  H   -0.018306   0.361460   0.391424  -0.019192   0.001934   0.000138
     4  H   -0.036035   0.365770  -0.019192   0.402971  -0.002922   0.000606
     5  N   -0.061165  -0.015657   0.001934  -0.002922   6.759637   0.366646
     6  H   -0.055780   0.000025   0.000138   0.000606   0.366646   0.436528
     7  H   -0.032346   0.000106   0.000041  -0.000363   0.361733  -0.028856
     8  Cl   0.004063  -0.023503   0.003348   0.001892  -0.048460   0.001967
     9  Cl   0.108266  -0.011559   0.000187   0.000192  -0.023235   0.007348
    10  O   -0.119530  -0.011141  -0.002682  -0.002536  -0.036417  -0.004433
    11  H   -0.052588   0.000239  -0.000038   0.002152  -0.005350   0.003521
    12  H   -0.022153   0.000123  -0.000067  -0.000394   0.003825  -0.000234
    13  H   -0.035105   0.370178  -0.016730  -0.019167  -0.005249  -0.000354
    14  H   -0.037221   0.001843  -0.000950   0.004894   0.347644  -0.014190
               7          8          9         10         11         12
     1  Pt  -0.032346   0.004063   0.108266  -0.119530  -0.052588  -0.022153
     2  N    0.000106  -0.023503  -0.011559  -0.011141   0.000239   0.000123
     3  H    0.000041   0.003348   0.000187  -0.002682  -0.000038  -0.000067
     4  H   -0.000363   0.001892   0.000192  -0.002536   0.002152  -0.000394
     5  N    0.361733  -0.048460  -0.023235  -0.036417  -0.005350   0.003825
     6  H   -0.028856   0.001967   0.007348  -0.004433   0.003521  -0.000234
     7  H    0.421914  -0.001747   0.006509   0.001790  -0.000470  -0.000243
     8  Cl  -0.001747  17.844004  -0.036204  -0.027212   0.002092  -0.000902
     9  Cl   0.006509  -0.036204  17.513231  -0.024052   0.001149   0.018896
    10  O    0.001790  -0.027212  -0.024052   8.225795   0.313695   0.292786
    11  H   -0.000470   0.002092   0.001149   0.313695   0.346628  -0.018453
    12  H   -0.000243  -0.000902   0.018896   0.292786  -0.018453   0.346378
    13  H    0.000081   0.002518   0.000271   0.000959  -0.000091   0.000155
    14  H   -0.017862   0.000490   0.001334   0.000769   0.000602  -0.000116
              13         14
     1  Pt  -0.035105  -0.037221
     2  N    0.370178   0.001843
     3  H   -0.016730  -0.000950
     4  H   -0.019167   0.004894
     5  N   -0.005249   0.347644
     6  H   -0.000354  -0.014190
     7  H    0.000081  -0.017862
     8  Cl   0.002518   0.000490
     9  Cl   0.000271   0.001334
    10  O    0.000959   0.000769
    11  H   -0.000091   0.000602
    12  H    0.000155  -0.000116
    13  H    0.396213   0.003317
    14  H    0.003317   0.424233
 Mulliken charges:
               1
     1  Pt   0.472021
     2  N   -0.490452
     3  H    0.299433
     4  H    0.302132
     5  N   -0.642966
     6  H    0.287067
     7  H    0.289713
     8  Cl  -0.722347
     9  Cl  -0.562333
    10  O   -0.607790
    11  H    0.406911
    12  H    0.380398
    13  H    0.303000
    14  H    0.285213
 Sum of Mulliken charges =   0.00000
 Mulliken charges with hydrogens summed into heavy atoms:
               1
     1  Pt   0.472021
     2  N    0.414112
     5  N    0.219027
     8  Cl  -0.722347
     9  Cl  -0.562333
    10  O    0.179519
 APT charges:
               1
     1  Pt   1.298750
     2  N   -0.414091
     3  H    0.246324
     4  H    0.232529
     5  N   -0.562082
     6  H    0.211578
     7  H    0.221737
     8  Cl  -0.881244
     9  Cl  -0.688652
    10  O   -0.859969
    11  H    0.374851
    12  H    0.365512
    13  H    0.249879
    14  H    0.204878
 Sum of APT charges =   0.00000
 APT charges with hydrogens summed into heavy atoms:
               1
     1  Pt   1.298750
     2  N    0.314641
     5  N    0.076110
     8  Cl  -0.881244
     9  Cl  -0.688652
    10  O   -0.119605
 Electronic spatial extent (au):  <R**2>=           1239.6774
 Charge=              0.0000 electrons
 Dipole moment (field-independent basis, Debye):
    X=             -8.1403    Y=            -13.9401    Z=              0.8978  Tot=             16.1678
 Quadrupole moment (field-independent basis, Debye-Ang):
   XX=            -66.3384   YY=            -75.4731   ZZ=            -57.7524
   XY=              4.0393   XZ=             -3.8741   YZ=             -0.9027
 Traceless Quadrupole moment (field-independent basis, Debye-Ang):
   XX=              0.1829   YY=             -8.9518   ZZ=              8.7689
   XY=              4.0393   XZ=             -3.8741   YZ=             -0.9027
 Octapole moment (field-independent basis, Debye-Ang**2):
  XXX=            -84.0608  YYY=           -100.5884  ZZZ=              3.2546  XYY=             -3.8132
  XXY=            -24.8417  XXZ=             -2.3562  XZZ=             -3.6838  YZZ=            -25.9520
  YYZ=             -3.2117  XYZ=              4.0947
 Hexadecapole moment (field-independent basis, Debye-Ang**3):
 XXXX=           -644.6854 YYYY=           -628.2761 ZZZZ=           -278.7485 XXXY=             21.4671
 XXXZ=             -5.5548 YYYX=             27.6477 YYYZ=             10.6693 ZZZX=            -21.6589
 ZZZY=             -0.8287 XXYY=           -204.8574 XXZZ=           -147.3877 YYZZ=           -138.1868
 XXYZ=             -2.0432 YYXZ=             -4.0646 ZZXY=             -2.8659
 N-N= 5.659028218844D+02 E-N=-4.018223984184D+03  KE= 1.149419461335D+03
  Exact polarizability: 126.056   0.497 122.566  -0.905  -2.389 107.998
 Approx polarizability: 140.806   2.460 134.665  -0.251  -1.676 115.325
 No NMR shielding tensors so no spin-rotation constants.
 Leave Link  601 at Wed Dec 23 10:10:35 2020, MaxMem=  4026531840 cpu:         3.3
 (Enter /home/scicons/Gaussian09D/Gaussian09.D01/l701.exe)
 Compute integral second derivatives.
 ... and contract with generalized density number  0.
 R6Disp: Adding Grimme-D3(BJ) dispersion energy 2nd derivatives to the Hessian.
   1 Symmetry operations used in ECPInt.
 ECPInt:  NShTT=    5565 NPrTT=   17197 LenC2=    5418 LenP2D=   13006.
 LDataN:  DoStor=T MaxTD1=10 Len=  848
 D2PCM: PCM CHGder 2nd derivatives, FixD1E=F FixD2E=F DoIter=F DoCFld=F I1PDM=0
 GePol: Maximum number of non-zero 2nd derivatives   =     359
 Leave Link  701 at Wed Dec 23 10:10:41 2020, MaxMem=  4026531840 cpu:       135.8
 (Enter /home/scicons/Gaussian09D/Gaussian09.D01/l702.exe)
 L702 exits ... SP integral derivatives will be done elsewhere.
 Leave Link  702 at Wed Dec 23 10:10:41 2020, MaxMem=  4026531840 cpu:         0.4
 (Enter /home/scicons/Gaussian09D/Gaussian09.D01/l703.exe)
 Compute integral second derivatives, UseDBF=F ICtDFT=           0.
 Integral derivatives from FoFJK, PRISM(SPDF).
 Calling FoFJK, ICntrl=    100127 FMM=F ISym2X=0 I1Cent= 0 IOpClX= 0 NMat=1 NMatS=1 NMatT=0.
 FoFJK:  IHMeth= 1 ICntrl=  100127 DoSepK=F KAlg= 0 I1Cent=   0 FoldK=F
 IRaf=         0 NMat=   1 IRICut=       1 DoRegI=T DoRafI=F ISym2E= 0.
 FoFCou: FMM=F IPFlag=           0 FMFlag=      100000 FMFlg1=         800
         NFxFlg=           0 DoJE=F BraDBF=F KetDBF=F FulRan=T
         wScrn=  0.000000 ICntrl=  100127 IOpCl=  0 I1Cent=           0 NGrid=           0
         NMat0=    1 NMatS0=      1 NMatT0=    0 NMatD0=    1 NMtDS0=    0 NMtDT0=    0
 Symmetry not used in FoFCou.
 Defaulting to unpruned grid for atomic number  78.
 Defaulting to unpruned grid for atomic number  78.
 Defaulting to unpruned grid for atomic number  78.
 Defaulting to unpruned grid for atomic number  78.
 Defaulting to unpruned grid for atomic number  78.
 Defaulting to unpruned grid for atomic number  78.
 Defaulting to unpruned grid for atomic number  78.
 Defaulting to unpruned grid for atomic number  78.
 Defaulting to unpruned grid for atomic number  78.
 Defaulting to unpruned grid for atomic number  78.
 Defaulting to unpruned grid for atomic number  78.
 Defaulting to unpruned grid for atomic number  78.
 Defaulting to unpruned grid for atomic number  78.
 Defaulting to unpruned grid for atomic number  78.
 Defaulting to unpruned grid for atomic number  78.
 Defaulting to unpruned grid for atomic number  78.
 Defaulting to unpruned grid for atomic number  78.
 Defaulting to unpruned grid for atomic number  78.
 Defaulting to unpruned grid for atomic number  78.
 Defaulting to unpruned grid for atomic number  78.
 Defaulting to unpruned grid for atomic number  78.
 Defaulting to unpruned grid for atomic number  78.
 Defaulting to unpruned grid for atomic number  78.
 Defaulting to unpruned grid for atomic number  78.
 Leave Link  703 at Wed Dec 23 10:11:03 2020, MaxMem=  4026531840 cpu:       521.8
 (Enter /home/scicons/Gaussian09D/Gaussian09.D01/l716.exe)
 Dipole        =-3.20263682D+00-5.48445790D+00 3.53232006D-01
 Polarizability= 1.26055652D+02 4.96997416D-01 1.22566295D+02
                -9.05404798D-01-2.38863961D+00 1.07998386D+02
 ***** Axes restored to original set *****
 -------------------------------------------------------------------
 Center     Atomic                   Forces (Hartrees/Bohr)
 Number     Number              X              Y              Z
 -------------------------------------------------------------------
      1       78          -0.059933055   -0.012788453   -0.010748944
      2        7           0.002176468    0.001263723    0.005517757
      3        1           0.005205550   -0.010638420    0.008618626
      4        1           0.006461349    0.010399520    0.010562952
      5        7          -0.029267068    0.046494129    0.001112691
      6        1           0.001882975    0.012856539   -0.005371916
      7        1          -0.012212688    0.005149642   -0.004424817
      8       17          -0.031785354   -0.062617035    0.005266978
      9       17           0.003337290    0.004338918   -0.026482061
     10        8           0.112566019   -0.008731981    0.010153267
     11        1           0.008949731    0.001672258   -0.005623797
     12        1           0.010810674    0.002189610   -0.006736315
     13        1          -0.011824096   -0.001264040    0.008954602
     14        1          -0.006367794    0.011675590    0.009200977
 -------------------------------------------------------------------
 Cartesian Forces:  Max     0.112566019 RMS     0.025402307
 FormGI is forming the generalized inverse of G from B-inverse, IUseBI=4.
 Leave Link  716 at Wed Dec 23 10:11:03 2020, MaxMem=  4026531840 cpu:         0.6
 (Enter /home/scicons/Gaussian09D/Gaussian09.D01/l103.exe)

 GradGradGradGradGradGradGradGradGradGradGradGradGradGradGradGradGradGrad
 Berny optimization.
 Red2BG is reusing G-inverse.
 Internal  Forces:  Max     0.132339678 RMS     0.022492881
 Search for a saddle point.
 Step number   1 out of a maximum of   78
 All quantities printed in internal units (Hartrees-Bohrs-Radians)
 Swapping is turned off.
 Second derivative matrix not updated -- analytic derivatives used.
 ITU=  0
     Eigenvalues ---   -0.05618  -0.04474  -0.00112  -0.00074  -0.00041
     Eigenvalues ---    0.01221   0.02799   0.03137   0.03412   0.03683
     Eigenvalues ---    0.04355   0.04706   0.05481   0.06378   0.07590
     Eigenvalues ---    0.08097   0.08136   0.08230   0.08927   0.09520
     Eigenvalues ---    0.09936   0.10781   0.11767   0.14532   0.16170
     Eigenvalues ---    0.21500   0.24109   0.31843   0.48284   0.48565
     Eigenvalues ---    0.48658   0.48684   0.49010   0.49170   0.52721
     Eigenvalues ---    0.53091
 Eigenvectors required to have negative eigenvalues:
                          A4        A6        D1        D2        D3
   1                   -0.52341   0.43029  -0.31283  -0.31202  -0.31173
                          D6        D5        D4        R5        R3
   1                    0.21169   0.21139   0.21059  -0.16050   0.16011
 Eigenvalue     2 is  -4.47D-02 should be greater than     0.000000 Eigenvector:
                          A8        A6        D9        D8        D7
   1                   -0.54897   0.35246   0.30500   0.29724   0.29460
                          D4        D5        D6        R2        A4
   1                   -0.25437  -0.25172  -0.24396  -0.20083   0.19651
 Eigenvalue     3 is  -1.12D-03 should be greater than     0.000000 Eigenvector:
                          D3        D2        D1        D9        D8
   1                   -0.33785  -0.33753  -0.33469  -0.33359  -0.33328
                          D7        D6        D5        D4        D25
   1                   -0.33044  -0.32934  -0.32903  -0.32619  -0.02260
 Eigenvalue     4 is  -7.37D-04 should be greater than     0.000000 Eigenvector:
                          D25       D29       D23       D27       D24
   1                   -0.40312  -0.39111  -0.38652  -0.36673  -0.31670
                          D28       D22       D26       A23       D17
   1                   -0.30469  -0.30010  -0.28032   0.11771  -0.05392
 Eigenvalue     5 is  -4.09D-04 should be greater than     0.000000 Eigenvector:
                          D21       D15       D18       D12       D19
   1                    0.29769   0.29361   0.29139   0.29085   0.28939
                          D13       D20       D16       D10       D14
   1                    0.28531   0.28450   0.28309   0.28255   0.28042
 RFO step:  Lambda0=7.559612926D-04 Lambda=-8.89005085D-02.
 Linear search not attempted -- option 19 set.
 Maximum step size (   0.300) exceeded in Quadratic search.
    -- Step size scaled by   0.408
 Iteration  1 RMS(Cart)=  0.09442906 RMS(Int)=  0.00312669
 Iteration  2 RMS(Cart)=  0.00463125 RMS(Int)=  0.00018864
 Iteration  3 RMS(Cart)=  0.00000994 RMS(Int)=  0.00018846
 Iteration  4 RMS(Cart)=  0.00000000 RMS(Int)=  0.00018846
 ITry= 1 IFail=0 DXMaxC= 3.02D-01 DCOld= 1.00D+10 DXMaxT= 3.00D-01 DXLimC= 3.00D+00 Rises=F
 Variable       Old X    -DE/DX   Delta X   Delta X   Delta X     New X
                                 (Linear)    (Quad)   (Total)
    R1        3.76056   0.03365   0.00000   0.03656   0.03656   3.79712
    R2        3.76055   0.08895   0.00000   0.03044   0.03044   3.79100
    R3        4.30858   0.07012   0.00000   0.13406   0.13406   4.44264
    R4        4.30858   0.02648   0.00000   0.03799   0.03799   4.34657
    R5        3.68497   0.13234   0.00000   0.13968   0.13968   3.82465
    R6        1.88973   0.01400   0.00000   0.01052   0.01052   1.90025
    R7        1.88973   0.01505   0.00000   0.01054   0.01054   1.90026
    R8        1.88973   0.01415   0.00000   0.01022   0.01022   1.89994
    R9        1.88973   0.01254   0.00000   0.00915   0.00915   1.89887
   R10        1.88973   0.01213   0.00000   0.00992   0.00992   1.89964
   R11        1.88973   0.01310   0.00000   0.01006   0.01006   1.89978
   R12        1.81414   0.00447   0.00000  -0.00067  -0.00067   1.81347
   R13        1.81414   0.00814   0.00000   0.00546   0.00546   1.81959
    A1        1.57080   0.00262   0.00000   0.00127   0.00102   1.57181
    A2        1.57080  -0.00277   0.00000  -0.00772  -0.00763   1.56316
    A3        1.57080  -0.00146   0.00000   0.00270   0.00263   1.57343
    A4        2.09440   0.00176   0.00000   0.03547   0.03547   2.12986
    A5        1.57080  -0.00235   0.00000  -0.01145  -0.01117   1.55962
    A6        2.09440   0.00463   0.00000   0.12900   0.12899   2.22339
    A7        1.57080   0.00572   0.00000   0.01414   0.01448   1.58528
    A8        2.09440  -0.00638   0.00000  -0.16448  -0.16447   1.92993
    A9        1.57080  -0.00176   0.00000   0.00107   0.00216   1.57296
   A10        1.91063   0.00329   0.00000   0.00380   0.00377   1.91440
   A11        1.91063   0.00654   0.00000   0.01660   0.01655   1.92718
   A12        1.91063   0.00393   0.00000   0.00185   0.00183   1.91247
   A13        1.91063  -0.00466   0.00000  -0.00772  -0.00778   1.90286
   A14        1.91063  -0.00461   0.00000  -0.00777  -0.00777   1.90287
   A15        1.91063  -0.00450   0.00000  -0.00676  -0.00680   1.90383
   A16        1.91063   0.00518   0.00000   0.00518   0.00515   1.91578
   A17        1.91063   0.00606   0.00000   0.01094   0.01088   1.92151
   A18        1.91063   0.01027   0.00000   0.01511   0.01504   1.92567
   A19        1.91063  -0.00624   0.00000  -0.01020  -0.01022   1.90042
   A20        1.91063  -0.00747   0.00000  -0.00977  -0.00982   1.90081
   A21        1.91063  -0.00779   0.00000  -0.01126  -0.01137   1.89926
   A22        1.91063   0.00925   0.00000  -0.00838  -0.00835   1.90228
   A23        1.91063   0.01048   0.00000   0.01683   0.01685   1.92748
   A24        1.91063  -0.01023   0.00000  -0.01426  -0.01421   1.89642
   A25        3.14159   0.00027   0.00000  -0.01019  -0.01015   3.13144
   A26        3.14159  -0.00356   0.00000  -0.00152  -0.00173   3.13987
    D1       -3.14159  -0.00146   0.00000   0.03277   0.03276  -3.10883
    D2       -1.04720  -0.00114   0.00000   0.03581   0.03582  -1.01138
    D3        1.04720  -0.00024   0.00000   0.03883   0.03885   1.08605
    D4        1.04720  -0.00322   0.00000  -0.00270  -0.00272   1.04448
    D5       -3.14159  -0.00290   0.00000   0.00034   0.00034  -3.14125
    D6       -1.04720  -0.00200   0.00000   0.00336   0.00337  -1.04383
    D7       -1.04720   0.00316   0.00000   0.16178   0.16176  -0.88544
    D8        1.04720   0.00349   0.00000   0.16482   0.16482   1.21202
    D9       -3.14159   0.00439   0.00000   0.16784   0.16785  -2.97374
   D10        2.14383  -0.00020   0.00000   0.01985   0.01991   2.16374
   D11       -2.04496  -0.00096   0.00000   0.01723   0.01727  -2.02769
   D12        0.04944  -0.00051   0.00000   0.01939   0.01945   0.06889
   D13       -2.56856  -0.00188   0.00000   0.01166   0.01154  -2.55701
   D14       -0.47416  -0.00265   0.00000   0.00905   0.00890  -0.46526
   D15        1.62023  -0.00219   0.00000   0.01120   0.01109   1.63132
   D16       -0.99776   0.00336   0.00000   0.02137   0.02164  -0.97612
   D17        1.09664   0.00260   0.00000   0.01875   0.01899   1.11563
   D18       -3.09215   0.00306   0.00000   0.02091   0.02118  -3.07097
   D19        0.57304  -0.00002   0.00000   0.01600   0.01582   0.58885
   D20        2.66743  -0.00079   0.00000   0.01338   0.01318   2.68061
   D21       -1.52136  -0.00033   0.00000   0.01554   0.01536  -1.50600
   D22       -1.55518  -0.00149   0.00000   0.02896   0.02881  -1.52637
   D23        2.63361  -0.00104   0.00000   0.04125   0.04113   2.67474
   D24        0.01562   0.00069   0.00000   0.03198   0.03211   0.04772
   D25       -2.07878   0.00114   0.00000   0.04428   0.04442  -2.03436
   D26       -3.12598   0.00255   0.00000   0.03632   0.03598  -3.09000
   D27        1.06281   0.00300   0.00000   0.04861   0.04829   1.11110
   D28        1.58641  -0.00304   0.00000   0.01938   0.01970   1.60611
   D29       -0.50798  -0.00259   0.00000   0.03167   0.03201  -0.47597
         Item               Value     Threshold  Converged?
 Maximum Force            0.132340     0.000450     NO 
 RMS     Force            0.022493     0.000300     NO 
 Maximum Displacement     0.301713     0.001800     NO 
 RMS     Displacement     0.095304     0.001200     NO 
 Predicted change in Energy=-3.500188D-02
 Lowest energy point so far.  Saving SCF results.
 GradGradGradGradGradGradGradGradGradGradGradGradGradGradGradGradGradGrad

 Leave Link  103 at Wed Dec 23 10:11:03 2020, MaxMem=  4026531840 cpu:         0.6
 (Enter /home/scicons/Gaussian09D/Gaussian09.D01/l202.exe)
                          Input orientation:                          
 ---------------------------------------------------------------------
 Center     Atomic      Atomic             Coordinates (Angstroms)
 Number     Number       Type             X           Y           Z
 ---------------------------------------------------------------------
      1         78           0        0.615047    0.431417   -0.020130
      2          7           0        0.611051    0.408052    1.989077
      3          1           0        1.138374   -0.381738    2.319725
      4          1           0        1.022429    1.251426    2.350562
      5          7           0       -0.448556    2.132293   -0.004510
      6          1           0        0.037532    2.841833   -0.524103
      7          1           0       -1.348955    1.980461   -0.424928
      8         17           0       -0.413673   -1.682488   -0.028813
      9         17           0        0.610604    0.480066   -2.319715
     10          8           0        2.630070    0.241919   -0.023655
     11          1           0        3.025928    1.114658    0.026764
     12          1           0        2.926267   -0.184281   -0.834687
     13          1           0       -0.334311    0.334063    2.323233
     14          1           0       -0.581116    2.452742    0.939108
 ---------------------------------------------------------------------
                    Distance matrix (angstroms):
                    1          2          3          4          5
     1  Pt   0.000000
     2  N    2.009347   0.000000
     3  H    2.531801   1.005568   0.000000
     4  H    2.541369   1.005576   1.637565   0.000000
     5  N    2.006110   2.840803   3.773694   2.913089   0.000000
     6  H    2.529352   3.545178   4.437411   3.429740   1.004841
     7  H    2.533910   3.484467   4.393166   3.722674   1.005248
     8  Cl   2.350943   3.080957   3.101037   4.041245   3.815018
     9  Cl   2.300103   4.309393   4.748226   4.751429   3.035103
    10  O    2.023917   2.855718   2.847022   3.039822   3.612730
    11  H    2.506266   3.190862   3.325618   3.071279   3.620580
    12  H    2.526723   3.699287   3.631234   3.978902   4.176738
    13  H    2.530239   1.005407   1.637433   1.638001   2.943649
    14  H    2.537065   2.589296   3.591243   2.450861   1.005323
                    6          7          8          9         10
     6  H    0.000000
     7  H    1.635281   0.000000
     8  Cl   4.573661   3.801165   0.000000
     9  Cl   3.021685   3.111475   3.312705   0.000000
    10  O    3.705571   4.360755   3.601074   3.067058   0.000000
    11  H    3.495297   4.482549   4.433731   3.426727   0.959646
    12  H    4.195071   4.809526   3.748234   2.830011   0.962887
    13  H    3.812414   3.360434   3.099176   4.740374   3.782053
    14  H    1.635574   1.634998   4.250298   3.991437   4.015765
                   11         12         13         14
    11  H    0.000000
    12  H    1.561816   0.000000
    13  H    4.144190   4.568644   0.000000
    14  H    3.953936   4.733073   2.542738   0.000000
 Stoichiometry    Cl2H8N2OPt
 Framework group  C1[X(Cl2H8N2OPt)]
 Deg. of freedom    36
 Full point group                 C1      NOp   1
 RotChk:  IX=2 Diff= 2.46D-01
 Largest Abelian subgroup         C1      NOp   1
 Largest concise Abelian subgroup C1      NOp   1
                         Standard orientation:                         
 ---------------------------------------------------------------------
 Center     Atomic      Atomic             Coordinates (Angstroms)
 Number     Number       Type             X           Y           Z
 ---------------------------------------------------------------------
      1         78           0       -0.099888   -0.168115   -0.010369
      2          7           0       -2.071523   -0.552628   -0.058107
      3          1           0       -2.493445   -0.063734   -0.828906
      4          1           0       -2.234069   -1.538977   -0.167089
      5          7           0        0.102739   -1.392143    1.566075
      6          1           0        0.784813   -2.100840    1.360580
      7          1           0        0.406561   -0.871676    2.370642
      8         17           0       -0.570774    2.121420    0.241078
      9         17           0        2.159918    0.254709    0.060173
     10          8           0        0.047549   -0.653000   -1.969804
     11          1           0        0.193548   -1.598288   -2.047491
     12          1           0        0.789568   -0.192368   -2.375238
     13          1           0       -2.496117   -0.242249    0.798764
     14          1           0       -0.773979   -1.835713    1.778882
 ---------------------------------------------------------------------
 Rotational constants (GHZ):      1.4979784      1.3406513      1.0670693
 Leave Link  202 at Wed Dec 23 10:11:03 2020, MaxMem=  4026531840 cpu:         0.4
 (Enter /home/scicons/Gaussian09D/Gaussian09.D01/l301.exe)
 Standard basis: def2TZVP (5D, 7F)
 Ernie: Thresh=  0.10000D-02 Tol=  0.10000D-05 Strict=F.
 There are   286 symmetry adapted cartesian basis functions of A   symmetry.
 There are   255 symmetry adapted basis functions of A   symmetry.
   255 basis functions,   430 primitive gaussians,   286 cartesian basis functions
    41 alpha electrons       41 beta electrons
       nuclear repulsion energy       556.1150024403 Hartrees.
 IExCor=  402 DFT=T Ex+Corr=B3LYP ExCW=0 ScaHFX=  0.200000
 ScaDFX=  0.800000  0.720000  1.000000  0.810000 ScalE2=  1.000000  1.000000
 IRadAn=      0 IRanWt=     -1 IRanGd=            0 ICorTp=0 IEmpDi=141
 NAtoms=   14 NActive=   14 NUniq=   14 SFac= 1.00D+00 NAtFMM=   60 NAOKFM=F Big=F
 Integral buffers will be    131072 words long.
 Raffenetti 2 integral format.
 Two-electron integral symmetry is turned on.
 R6Disp:  Grimme-D3(BJ) Dispersion energy=       -0.0294508333 Hartrees.
 Nuclear repulsion after empirical dispersion term =      556.0855516070 Hartrees.
 Force inversion solution in PCM.
 ------------------------------------------------------------------------------
 Polarizable Continuum Model (PCM)
 =================================
 Model                : PCM (using non-symmetric T matrix).
 Atomic radii         : SMD-Coulomb.
 Polarization charges : Total charges.
 Charge compensation  : None.
 Solution method      : Matrix inversion.
 Cavity type          : VdW (van der Waals Surface) (Alpha=1.000).
 Cavity algorithm     : GePol (No added spheres)
                        Default sphere list used, NSphG=   14.
                        Lebedev-Laikov grids with approx.  5.0 points / Ang**2.
                        Smoothing algorithm: Karplus/York (Gamma=1.0000).
                        Polarization charges: spherical gaussians, with
                                              point-specific exponents (IZeta= 3).
                        Self-potential: point-specific (ISelfS= 7).
                        Self-field    : sphere-specific E.n sum rule (ISelfD= 2).
 1st derivatives      : Analytical E(r).r(x)/FMM algorithm (CHGder, D1EAlg=3).
                        Cavity 1st derivative terms included.
 2nd derivatives      : Analytical E(r).r(xy)/FMM algorithm (CHGder, D2EAlg=3).
                        Cavity 2nd derivative terms included.
 Solvent              : Water, Eps=  78.355300 Eps(inf)=   1.777849
 ------------------------------------------------------------------------------
 Spheres list:
 ISph  on   Nord     Re0    Alpha      Xe            Ye            Ze
    1  Pt      1    1.7500  1.000     -0.099888     -0.168115     -0.010369
    2   N      2    1.8900  1.000     -2.071523     -0.552628     -0.058107
    3   H      3    1.2000  1.000     -2.493445     -0.063734     -0.828906
    4   H      4    1.2000  1.000     -2.234069     -1.538977     -0.167089
    5   N      5    1.8900  1.000      0.102739     -1.392143      1.566075
    6   H      6    1.2000  1.000      0.784813     -2.100840      1.360580
    7   H      7    1.2000  1.000      0.406561     -0.871676      2.370642
[...]
 Vib (V=0)    2  0.253486D+01          0.403954          0.930139
 Vib (V=0)    3  0.236269D+01          0.373407          0.859800
 Vib (V=0)    4  0.230474D+01          0.362621          0.834966
 Vib (V=0)    5  0.199766D+01          0.300522          0.691978
 Vib (V=0)    6  0.192979D+01          0.285511          0.657413
 Vib (V=0)    7  0.188126D+01          0.274448          0.631941
 Vib (V=0)    8  0.176130D+01          0.245834          0.566053
 Vib (V=0)    9  0.156406D+01          0.194253          0.447284
 Vib (V=0)   10  0.145893D+01          0.164034          0.377703
 Vib (V=0)   11  0.127533D+01          0.105622          0.243203
 Vib (V=0)   12  0.120017D+01          0.079243          0.182463
 Vib (V=0)   13  0.110468D+01          0.043238          0.099558
 Vib (V=0)   14  0.109456D+01          0.039239          0.090350
 Vib (V=0)   15  0.108784D+01          0.036564          0.084193
 Electronic      0.100000D+01          0.000000          0.000000
 Translational   0.221807D+09          8.345975         19.217317
 Rotational      0.772519D+06          5.887909         13.557412
 
                                                         Title Card Required
                                                             IR Spectrum
 
     3     3333 333                                                        11111        11                                           
     7     5555 444                                                        66665        22              8777 6    554  33221111111   
     7     3221 321                                                        10008        98              2986 8    208  714175541106  
     6     6923 233                                                        59536        76              9248 5    178  180147148446  
 
     X     XXXX XXX                                                        XXXXX        XX              XXXX X    XXX  XXXXXXXXXXXX  
     X     XXXX XXX                                                        X XXX        XX              X X  X    X    XX XX         
     X     XXXX  XX                                                        X X X        XX                X  X    X    X             
     X      XXX   X                                                                     XX                X  X    X    X             
     X      X X   X                                                                      X                X  X    X    X             
                  X                                                                                          X    X                  
                  X                                                                                          X    X                  
                  X                                                                                          X    X                  
                  X                                                                                          X    X                  
                  X                                                                                          X    X                  
                  X                                                                                          X                       
                  X                                                                                          X                       
                  X                                                                                          X                       
                  X                                                                                                                  
                  X                                                                                                                  
                  X                                                                                                                  
                  X                                                                                                                  
                  X                                                                                                                  
                  X                                                                                                                  
                  X                                                                                                                  
 
 ***** Axes restored to original set *****
 -------------------------------------------------------------------
 Center     Atomic                   Forces (Hartrees/Bohr)
 Number     Number              X              Y              Z
 -------------------------------------------------------------------
      1       78          -0.000004110    0.000003540   -0.000000464
      2        7           0.000007627   -0.000010956    0.000002970
      3        1           0.000004689   -0.000009645   -0.000007646
      4        1           0.000007434   -0.000015010   -0.000002295
      5        7           0.000001951    0.000005476    0.000013834
      6        1          -0.000004313    0.000009623    0.000018744
      7        1           0.000003730    0.000003007    0.000010689
      8       17          -0.000002703    0.000003814   -0.000019697
      9       17          -0.000011102    0.000019099   -0.000011925
     10        8          -0.000003745   -0.000000714   -0.000008052
     11        1          -0.000000149    0.000003903   -0.000000143
     12        1          -0.000003658   -0.000001911   -0.000017647
     13        1           0.000002336   -0.000009695    0.000002091
     14        1           0.000002013   -0.000000532    0.000019541
 -------------------------------------------------------------------
 Cartesian Forces:  Max     0.000019697 RMS     0.000009069
 Red2BG is reusing G-inverse.
 Leave Link  716 at Wed Dec 23 10:35:51 2020, MaxMem=  4026531840 cpu:         0.9
 (Enter /home/scicons/Gaussian09D/Gaussian09.D01/l9999.exe)
 1\1\GINC-CU07\Freq\RB3LYP\def2TZVP\Cl2H8N2O1Pt1\SKY\23-Dec-2020\0\\#p 
 opt=(calcall, ts, noeigen) b3lyp/def2tzvp em=gd3bj scrf=(smd,solvent=w
 ater) geom=connectivity\\Title Card Required\\0,1\Pt,0.6543526337,0.85
 85058103,-0.0434041696\N,0.411630527,0.4442748324,1.9644353981\H,0.401
 1325796,-0.5704705681,2.0615944095\H,1.1895740138,0.8088092764,2.51003
 52572\N,-0.7468271269,2.3318838258,0.0461325403\H,-0.8592003523,2.7604
 9177,-0.8705942512\H,-1.6487807941,1.9587631963,0.3349720771\Cl,0.9585
 693009,-1.9868934012,-0.0871904114\Cl,0.9709566691,1.3189151649,-2.310
 5928107\O,3.0546301129,0.0972880597,0.0229737953\H,3.3212069546,0.3477
 205647,-0.873106697\H,2.708439002,-0.8197044865,-0.0590958082\H,-0.447
 675438,0.812903701,2.3652335114\H,-0.4773186622,3.0579361044,0.7065351
 192\\Version=ES64L-G09RevD.01\State=1-A\HF=-1229.668728\RMSD=7.361e-09
 \RMSF=9.069e-06\ZeroPoint=0.1054507\Thermal=0.1166715\Dipole=-2.399562
 5,4.078657,3.8305618\DipoleDeriv=0.9694861,-0.201782,-0.1906989,-0.389
 9713,1.4535699,-0.4231065,-0.2048164,-0.3667934,1.5466052,-0.2060003,-
 0.0273329,0.0489187,-0.0091794,-0.3127245,0.0903969,0.0915162,0.169879
 6,-0.9544187,0.2484311,-0.0119192,-0.0280504,-0.0241797,0.3088876,0.07
 35801,-0.0257536,0.0403738,0.2757683,0.2691102,-0.0103079,0.0670565,0.
 0062767,0.2688038,0.0506913,-0.0000715,0.0136508,0.173624,-0.5318923,0
 .1355855,-0.0125578,0.1125157,-0.7089188,0.0199284,0.0420836,-0.101359
 3,-0.2196364,0.2505096,-0.0010096,0.0112301,-0.0008624,0.2364867,-0.01
 77984,-0.0144249,-0.0024655,0.273497,0.2539916,-0.0121904,0.0018419,0.
 1275171,0.236114,0.0027086,-0.0127216,-0.0013867,0.2735953,-0.8907693,
 0.0108306,0.0229526,-0.163798,-1.5564163,-0.0130822,0.0256458,0.013608
 2,-0.7033171,-0.4880492,0.0291088,0.1364671,0.0393331,-0.4323303,0.190
 1669,0.0902543,0.1930153,-1.2266075,-1.593946,-0.2446148,0.0014167,-0.
 0000021,-0.8471233,0.0825901,-0.0374352,0.0280912,-0.4453863,0.5046416
 ,-0.0206279,-0.0420888,-0.0178563,0.376493,-0.0370637,0.0277712,-0.015
 2641,0.278783,0.7219069,0.1803122,0.0028181,0.307112,0.5162349,-0.0348
 14,0.0179788,-0.0470185,0.2552857,0.2580422,0.0250341,-0.0271243,0.004
 7635,0.2456155,0.0157078,0.0070168,0.0231301,0.1896493,0.2345377,0.148
 9135,0.0078186,0.008331,0.2153077,0.0000948,-0.0070436,0.0525383,0.282
 5582\Polar=118.2795833,-4.6204141,137.48835,-6.1484116,-7.9047203,133.
 4085454\PG=C01 [X(Cl2H8N2O1Pt1)]\NImag=1\\0.12267195,-0.10418750,0.131
 66618,-0.03915079,-0.02814641,0.26895483,-0.04531593,0.00299132,0.0141
 7245,0.66865483,0.00369899,-0.04235222,0.00884172,-0.01598214,0.643710
 13,0.00822753,0.00966554,-0.09862530,0.02117030,0.08175045,0.38830336,
 -0.00006538,-0.00240139,0.00180464,-0.05864414,-0.00474374,-0.00224364
 ,0.05532473,-0.00033711,-0.00094516,0.00582013,-0.00253070,-0.40267825
 ,0.02457656,0.00427389,0.42534400,0.00094531,0.02100436,-0.00589547,-0
 .00148442,0.05090383,-0.03597692,0.00142212,-0.03533543,0.04143467,0.0
 0469954,0.00282958,-0.00121729,-0.26301971,-0.09650905,-0.14167287,0.0
 0113250,0.00082549,0.00120693,0.28124324,0.00507117,0.00175800,0.00045
 177,-0.09215266,-0.09874218,-0.06874945,-0.03057671,-0.01043309,-0.020
 05853,0.10656237,0.10224504,-0.01156469,-0.00462026,-0.01043041,-0.165
 81603,-0.08404027,-0.14421188,0.00419803,0.00229383,0.00074703,0.15828
 116,0.07843582,0.14779782,-0.05774025,0.04911427,0.00930569,0.00221126
 ,-0.00146509,-0.00149491,0.00017158,-0.00021112,-0.00001176,0.00010024
 ,0.00006024,0.00003728,0.51778366,0.05722387,-0.05927653,-0.00311702,-
 0.00002215,-0.00045510,0.00210283,0.00001480,-0.00038188,-0.00052903,-
 0.00014809,0.00015853,0.00003829,0.14445634,0.50220921,0.00878578,0.00
 056138,-0.04662094,-0.00650074,0.00700997,0.00273464,-0.00021006,0.000
 06435,-0.00072488,-0.00029246,0.00012241,-0.00006681,0.00148922,-0.008
 57234,0.67806968,-0.00321427,0.00853651,-0.01294242,-0.00051955,0.0002
 9545,0.00055975,-0.00002057,0.00002751,0.00004487,-0.00001860,-0.00003
 831,0.00007045,-0.05065346,0.00899113,-0.04869423,0.05128571,0.0054410
 6,-0.00800260,0.01246658,0.00049807,-0.00037048,-0.00062652,0.00002059
 ,-0.00003319,-0.00005484,0.00004591,0.00000069,-0.00004063,0.00348903,
 -0.11189396,0.14776400,-0.00972785,0.11364252,-0.00158953,0.00084477,0
 .00479697,0.00005127,-0.00011074,-0.00005122,0.00003478,-0.00004334,-0
 .00005815,-0.00000537,0.00000717,-0.00001948,-0.03255802,0.13059960,-0
 .34239898,0.03722241,-0.14512693,0.36390553,-0.00845986,0.00382381,0.0
 0349092,0.00015573,-0.00011780,-0.00011691,0.00011262,0.00000644,0.000
 01287,-0.00001336,-0.00013405,0.00003470,-0.33368370,-0.13838042,0.092
 40037,0.00517671,0.00303839,-0.00180740,0.34695584,0.00904982,0.003532
 06,-0.00577966,-0.00029784,0.00049697,0.00046306,-0.00005206,0.0000869
 0,0.00002624,-0.00015042,-0.00003893,0.00005599,-0.11129594,-0.0865814
 9,0.03426302,-0.01288975,-0.00638354,0.00258079,0.13452446,0.09999057,
 0.00036417,-0.00100959,-0.00002779,-0.00033081,0.00006925,0.00009456,0
 .00008561,0.00002534,0.00002253,0.00004859,-0.00001830,-0.00002175,0.0
 8779064,0.03993648,-0.08712428,0.03177837,0.01250996,-0.00727510,-0.09
 600794,-0.04238815,0.08639424,-0.00496567,-0.00055009,0.00050265,0.000
 67419,0.00202749,0.00124742,-0.00045670,-0.00078883,-0.00128846,-0.000
 23094,0.00029012,0.00019287,0.00019265,0.00345620,0.00063029,-0.000052
 12,0.00010001,0.00019344,0.00033540,-0.00020508,-0.00004149,0.01471813
 ,0.01955280,0.01387424,-0.00208475,0.00091584,-0.00387127,-0.00193348,
 -0.00023459,-0.00123704,0.00013349,0.00021480,-0.00008288,-0.00014822,
 -0.00404978,-0.01196315,-0.00132281,0.00042592,-0.00066314,-0.00073439
 ,-0.00139517,0.00067710,0.00012855,0.00919048,0.01939398,0.00007196,-0
 .00140797,-0.00816747,0.00154499,-0.00527214,-0.00266791,-0.00112730,0
 .00170371,0.00308528,0.00010718,-0.00048032,-0.00006985,0.00005544,0.0
 0070965,0.00205057,0.00026446,-0.00026639,-0.00001917,-0.00000161,0.00
 008208,-0.00000150,0.00002758,0.00482747,0.00508124,-0.02226835,0.0011
 7124,0.00720154,0.00887706,-0.00007037,0.00372880,0.00018815,0.0002430
 2,0.00019437,-0.00074871,-0.00095793,0.00191424,-0.00069247,0.00026185
 ,0.00627527,0.00051518,-0.00103337,-0.00089297,-0.00005838,-0.00001443
 ,0.00028018,0.00067770,-0.00020870,-0.00008711,0.01429197,-0.00119141,
 -0.02415506,0.01630863,0.00038118,0.00779413,0.00428474,0.00014567,0.0
 0044824,-0.00147744,-0.00068904,-0.00045546,0.00129960,0.00200350,0.00
 166317,-0.00544413,-0.00153498,0.00042797,0.00131279,0.00016587,-0.000
 19325,-0.00039039,0.00021646,-0.00016208,0.00124205,-0.00011434,0.0153
 9877,0.01262367,0.00893045,-0.08851798,0.00258914,0.00529691,-0.013878
 15,0.00021513,-0.00114143,-0.00245450,0.00152478,0.00113659,-0.0011770
 0,0.00141961,0.00039610,-0.00220050,0.00064761,-0.00040375,0.00057006,
 -0.00022043,-0.00008792,0.00007750,-0.00077650,0.00169893,0.00089771,-
 0.01449257,-0.01910886,0.11146913,0.02083151,0.02401775,-0.00122916,0.
 00033999,-0.00007305,0.00077304,0.00030080,-0.00056561,-0.00097519,-0.
 00033632,-0.00020595,0.00027954,-0.01047142,-0.00863312,-0.00055679,-0
 .00029250,-0.00030214,0.00049754,-0.00157531,0.00342438,-0.00038110,-0
 .01319753,-0.02635456,0.00122570,-0.00107181,0.00158104,-0.00164919,0.
 10264355,-0.00635908,-0.01494576,0.00325497,-0.00043022,0.00028849,-0.
 00010401,0.00014274,-0.00035359,-0.00054849,0.00003472,0.00010152,-0.0
 0025230,0.00724229,0.00317861,-0.00038418,0.00000956,0.00030864,-0.000
 19096,0.00070549,-0.00186551,0.00020090,-0.02087319,-0.00933882,0.0004
 2712,0.00171148,-0.00039710,0.00127977,0.18254148,0.45187752,0.0017382
 3,0.00244915,-0.01188818,0.00123222,-0.00048662,0.00078386,-0.00007056
 ,0.00004269,0.00021423,-0.00005871,-0.00017397,0.00010251,0.00043201,-
 0.00080279,0.00305445,0.00052903,-0.00043781,-0.00023678,-0.00008299,0
 .00014935,0.00009218,0.00037864,-0.00033676,0.00387335,-0.00318444,0.0
 0135788,-0.00091836,-0.11158310,-0.06564257,0.48991431,-0.00608463,-0.
 00093146,0.00677388,-0.00016036,0.00023444,-0.00044657,0.00002410,-0.0
 0003935,-0.00010021,0.00004219,0.00008807,-0.00013402,0.00040898,0.000
 55022,-0.00099499,-0.00022712,0.00022161,0.00011099,0.00005500,-0.0002
 7102,-0.00000373,-0.00055819,-0.00023735,-0.00095104,0.00068103,-0.000
 99827,-0.00085085,-0.04324150,-0.04363780,0.11006632,0.05307932,-0.000
 03174,0.00009392,-0.00249192,0.00005861,-0.00016247,0.00014372,-0.0000
 2173,0.00000001,0.00005520,0.00000112,0.00001854,0.00009900,0.00037112
 ,0.00006678,0.00040122,0.00010349,-0.00007895,-0.00008577,0.00004929,-
 0.00006252,0.00001898,-0.00106699,-0.00017910,-0.00081045,-0.00115829,
 -0.00022504,0.00017888,-0.03600744,-0.06627829,0.08183254,0.04857003,0
 .07650260,0.00263410,0.00000983,0.00073472,0.00006094,0.00006825,-0.00
 016253,0.00004404,-0.00003662,-0.00011631,-0.00002728,-0.00001610,-0.0
 0001041,-0.00077610,-0.00016620,0.00004099,-0.00009739,0.00006340,0.00
 016987,-0.00010009,0.00021231,-0.00002458,-0.00093219,-0.00121184,0.00
 000619,0.00016178,0.00010710,-0.00201751,0.12882260,0.12513182,-0.4344
 3631,-0.12808838,-0.11982681,0.43504093,-0.00227543,0.01122942,-0.0002
 5908,0.00008500,-0.00016685,-0.00008101,-0.00035789,0.00044494,0.00099
 356,0.00008925,-0.00001346,0.00005194,-0.00187306,-0.00080652,-0.00013
 422,0.00004954,-0.00011249,-0.00005738,-0.00021956,0.00020795,-0.00000
 476,0.00343237,-0.00019402,-0.00057193,-0.00033066,-0.00031535,0.00029
 591,-0.05491560,-0.12050168,0.00085778,-0.00406454,-0.01083152,-0.0016
 9180,0.06008442,0.01376332,0.00392214,-0.00062757,0.00035625,-0.000323
 07,-0.00009623,-0.00006434,0.00044805,0.00052062,-0.00000428,-0.000105
 82,-0.00002105,-0.00146661,-0.00288464,-0.00027068,0.00001797,-0.00011
 453,-0.00002857,-0.00040145,0.00056728,-0.00002975,0.00780552,-0.00456
 354,-0.00003816,-0.00016304,0.00012536,0.00031780,-0.13809747,-0.36337
 497,-0.01826876,-0.00357371,-0.00976725,-0.00430704,0.12144114,0.37655
 227,-0.00040083,-0.00016179,0.00199868,0.00000399,-0.00003656,-0.00019
 543,0.00015927,0.00007712,-0.00005575,0.00003219,-0.00001330,-0.000080
 11,0.00007127,0.00002365,-0.00019112,-0.00002618,0.00002640,0.00000525
 ,0.00001192,-0.00003822,0.00000035,0.00011580,0.00028926,-0.00382734,-
 0.00013473,-0.00010591,-0.00026931,-0.01502696,-0.06328904,-0.05039343
 ,0.01460705,0.04047773,0.00081502,0.00055557,0.02274444,0.05217774,0.0
 0179418,-0.00185707,0.00201724,-0.31403871,0.11316266,0.11095031,0.002
 29052,-0.00135106,-0.00110992,-0.02301447,0.01193523,0.01257505,0.0002
 9438,-0.00004885,0.00006446,-0.00011763,-0.00003640,0.00008539,-0.0004
 9416,0.00010816,-0.00010438,0.00003787,-0.00015559,-0.00013906,0.00021
 747,0.00034273,-0.00123722,0.00030477,-0.00009313,-0.00001229,-0.00005
 517,0.00002005,-0.00001490,-0.00010569,0.00002620,0.00001707,0.3328067
 6,-0.00590247,0.00238645,0.00129669,0.10635771,-0.10313686,-0.05182443
 ,0.03361281,-0.01016833,-0.01441808,-0.01303860,0.00557942,0.00680556,
 0.00003514,0.00043736,-0.00031731,-0.00001539,0.00002239,-0.00003537,0
 .00046164,-0.00031133,0.00037851,0.00015280,-0.00044378,-0.00092226,0.
 00042081,-0.00025335,0.00125351,0.00004049,0.00007568,0.00013779,0.000
 01330,0.00001114,0.00002468,-0.00012372,-0.00012043,0.00001494,-0.1220
 4567,0.10605656,0.01507389,-0.00727542,-0.00789977,0.13340281,-0.06428
 160,-0.09608145,-0.00434964,0.00195731,-0.00021380,-0.01794617,0.00931
 475,0.00749949,-0.00045534,0.00026510,0.00189356,0.00012440,-0.0002213
 2,-0.00007935,-0.00100364,0.00092110,-0.00084979,0.00001370,-0.0002212
 9,-0.00012843,-0.00124952,0.00104058,-0.00166262,0.00000744,0.00003854
 ,-0.00017990,-0.00001174,-0.00000245,-0.00002166,-0.00006483,0.0000435
 3,-0.00000126,-0.12320329,0.05759704,0.09824161,0.00039259,0.00621361,
 0.00952974,0.00070033,-0.00029094,-0.00060123,-0.00000033,0.00000248,0
 .00014993,0.00007513,0.00007186,-0.00012053,-0.06604839,-0.06691525,-0
 .05226189,-0.00191131,-0.00164241,-0.00128514,-0.00828698,-0.02213824,
 -0.02347335,-0.00060715,0.00252992,-0.00041925,-0.00027818,0.00000695,
 -0.00008910,0.00068136,-0.00049267,-0.00024215,0.00010090,-0.00005602,
 0.00000467,0.00040185,0.00036051,0.00001456,0.00007989,0.00003114,-0.0
 0033808,0.07470031,0.00420828,-0.00755567,-0.00619315,-0.00014327,-0.0
 0019782,0.00034723,-0.00011595,-0.00009669,-0.00022191,0.00002551,-0.0
 0000339,0.00009463,-0.08828338,-0.23427692,-0.17387491,0.00579874,0.01
 313818,0.01101095,-0.00234649,-0.00991431,-0.00943179,0.00024510,-0.00
 144052,0.00020562,-0.00008794,-0.00001631,0.00025302,-0.00136581,0.000
 72359,0.00017986,0.00001128,0.00006063,-0.00005279,-0.00025784,-0.0003
 6086,-0.00000874,-0.00000727,-0.00013493,0.00082413,0.08231905,0.24007
 501,0.00224120,-0.00084405,0.00158810,-0.00009611,0.00028753,-0.000065
 63,0.00003757,-0.00000423,-0.00000796,0.00001931,0.00004146,-0.0000591
 6,-0.06530503,-0.16088433,-0.20851637,-0.00948113,-0.02565216,-0.01930
 947,0.00339024,0.00954001,0.00864344,-0.00026375,0.00091586,-0.0001126
 9,0.00028515,-0.00042664,0.00008154,-0.00020436,0.00007843,0.00001807,
 0.00002330,0.00001012,-0.00001841,0.00011025,0.00006142,0.00001671,0.0
 0011154,0.00000873,-0.00051664,0.06913183,0.17686786,0.21825847\\0.000
 00411,-0.00000354,0.00000046,-0.00000763,0.00001096,-0.00000297,-0.000
 00469,0.00000964,0.00000765,-0.00000743,0.00001501,0.00000230,-0.00000
 195,-0.00000548,-0.00001383,0.00000431,-0.00000962,-0.00001874,-0.0000
 0373,-0.00000301,-0.00001069,0.00000270,-0.00000381,0.00001970,0.00001
 110,-0.00001910,0.00001193,0.00000374,0.00000071,0.00000805,0.00000015
 ,-0.00000390,0.00000014,0.00000366,0.00000191,0.00001765,-0.00000234,0
 .00000970,-0.00000209,-0.00000201,0.00000053,-0.00001954\\\@


 ABSOLUTISM, OBSOLETISM -- IF IT WORKS, IT'S OUT OF DATE

                          -- STAFFORD BEER
 Job cpu time:       0 days  8 hours 53 minutes 31.0 seconds.
 File lengths (MBytes):  RWF=    163 Int=      0 D2E=      0 Chk=     13 Scr=      1
 Normal termination of Gaussian 09 at Wed Dec 23 10:35:52 2020.
