 Entering Gaussian System, Link 0=g09
 Input=pt-n-n.gjf
 Output=pt-n-n.log
 Initial command:
 /home/scicons/Gaussian09D/Gaussian09.D01/l1.exe "/tmp/Gau-155552.inp" -scrdir="/tmp/"
 Entering Link 1 = /home/scicons/Gaussian09D/Gaussian09.D01/l1.exe PID=    155553.
  
 Copyright (c) 1988,1990,1992,1993,1995,1998,2003,2009,2013,
            Gaussian, Inc.  All Rights Reserved.
  
 This is part of the Gaussian(R) 09 program.  It is based on
 the Gaussian(R) 03 system (copyright 2003, Gaussian, Inc.),
 the Gaussian(R) 98 system (copyright 1998, Gaussian, Inc.),
 the Gaussian(R) 94 system (copyright 1995, Gaussian, Inc.),
 the Gaussian 92(TM) system (copyright 1992, Gaussian, Inc.),
 the Gaussian 90(TM) system (copyright 1990, Gaussian, Inc.),
 the Gaussian 88(TM) system (copyright 1988, Gaussian, Inc.),
 the Gaussian 86(TM) system (copyright 1986, Carnegie Mellon
 University), and the Gaussian 82(TM) system (copyright 1983,
 Carnegie Mellon University). Gaussian is a federally registered
 trademark of Gaussian, Inc.
  
 This software contains proprietary and confidential information,
 including trade secrets, belonging to Gaussian, Inc.
  
 This software is provided under written license and may be
 used, copied, transmitted, or stored only in accord with that
 written license.
  
 The following legend is applicable only to US Government
 contracts under FAR:
  
                    RESTRICTED RIGHTS LEGEND
  
 Use, reproduction and disclosure by the US Government is
 subject to restrictions as set forth in subparagraphs (a)
 and (c) of the Commercial Computer Software - Restricted
 Rights clause in FAR 52.227-19.
  
 Gaussian, Inc.
 340 Quinnipiac St., Bldg. 40, Wallingford CT 06492
  
  
 ---------------------------------------------------------------
 Warning -- This program may not be used in any manner that
 competes with the business of Gaussian, Inc. or will provide
 assistance to any competitor of Gaussian, Inc.  The licensee
 of this program is prohibited from giving any competitor of
 Gaussian, Inc. access to this program.  By using this program,
 the user acknowledges that Gaussian, Inc. is engaged in the
 business of creating and licensing software in the field of
 computational chemistry and represents and warrants to the
 licensee that it is not a competitor of Gaussian, Inc. and that
 it will not use this program in any manner prohibited above.
 ---------------------------------------------------------------
  

 Cite this work as:
 Gaussian 09, Revision D.01,
 M. J. Frisch, G. W. Trucks, H. B. Schlegel, G. E. Scuseria, 
 M. A. Robb, J. R. Cheeseman, G. Scalmani, V. Barone, B. Mennucci, 
 G. A. Petersson, H. Nakatsuji, M. Caricato, X. Li, H. P. Hratchian, 
 A. F. Izmaylov, J. Bloino, G. Zheng, J. L. Sonnenberg, M. Hada, 
 M. Ehara, K. Toyota, R. Fukuda, J. Hasegawa, M. Ishida, T. Nakajima, 
 Y. Honda, O. Kitao, H. Nakai, T. Vreven, J. A. Montgomery, Jr., 
 J. E. Peralta, F. Ogliaro, M. Bearpark, J. J. Heyd, E. Brothers, 
 K. N. Kudin, V. N. Staroverov, T. Keith, R. Kobayashi, J. Normand, 
 K. Raghavachari, A. Rendell, J. C. Burant, S. S. Iyengar, J. Tomasi, 
 M. Cossi, N. Rega, J. M. Millam, M. Klene, J. E. Knox, J. B. Cross, 
 V. Bakken, C. Adamo, J. Jaramillo, R. Gomperts, R. E. Stratmann, 
 O. Yazyev, A. J. Austin, R. Cammi, C. Pomelli, J. W. Ochterski, 
 R. L. Martin, K. Morokuma, V. G. Zakrzewski, G. A. Voth, 
 P. Salvador, J. J. Dannenberg, S. Dapprich, A. D. Daniels, 
 O. Farkas, J. B. Foresman, J. V. Ortiz, J. Cioslowski, 
 and D. J. Fox, Gaussian, Inc., Wallingford CT, 2013.
 
 ******************************************
 Gaussian 09:  ES64L-G09RevD.01 24-Apr-2013
                23-Dec-2020 
 ******************************************
 %nproc=24
 Will use up to   24 processors via shared memory.
 %mem=30GB
 %chk=pt-n-n.chk
 ----------------------------------------------------------------------
 #p opt=(calcall, ts, noeigen) b3lyp/def2tzvp em=gd3bj scrf=(smd,solven
 t=water) geom=connectivity
 ----------------------------------------------------------------------
 1/5=1,10=4,11=1,14=-1,18=20,26=3,38=1,57=2/1,3;
 2/9=110,12=2,17=6,18=5,40=1/2;
 3/5=44,7=101,11=2,16=1,25=1,30=1,70=32201,71=2,72=1,74=-5,124=41,140=1/1,2,3;
 4//1;
 5/5=2,38=5,53=1/2;
 8/6=4,10=90,11=11/1;
 11/6=1,8=1,9=11,15=111,16=1/1,2,10;
 10/6=1/2;
 6/7=2,8=2,9=2,10=2,18=1,28=1/1;
 7/10=1,25=1/1,2,3,16;
 1/5=1,10=4,11=1,14=-1,18=20,26=3/3(3);
 2/9=110/2;
 7/8=1,9=1,25=1,44=-1/16;
 99//99;
 2/9=110/2;
 3/5=44,7=101,11=2,16=1,25=1,30=1,70=32205,71=2,72=1,74=-5,124=41,140=1/1,2,3;
 4/5=5,16=3,69=1/1;
 5/5=2,38=5,53=1/2;
 8/6=4,10=90,11=11/1;
 11/6=1,8=1,9=11,15=111,16=1/1,2,10;
 10/6=1/2;
 7/10=1,25=1/1,2,3,16;
 1/5=1,10=4,11=1,14=-1,18=20,26=3/3(-8);
 2/9=110/2;
 6/7=2,8=2,9=2,10=2,18=1,19=2,28=1/1;
 7/8=1,9=1,25=1,44=-1/16;
 99//99;
 Leave Link    1 at Wed Dec 23 10:08:31 2020, MaxMem=  4026531840 cpu:         1.6
 (Enter /home/scicons/Gaussian09D/Gaussian09.D01/l101.exe)
 -------------------
 Title Card Required
 -------------------
 Symbolic Z-matrix:
 Charge =  0 Multiplicity = 1
 Pt                   -2.38916  -0.22167   0. 
 N                    -2.38916  -0.22167   1.99 
 H                    -1.91776  -1.03817   2.32333 
 H                    -1.91776   0.59482   2.32333 
 Cl                   -3.52916  -2.19621   0. 
 O                    -0.43916  -0.22167   0. 
 H                    -0.11916   0.68331   0.01413 
 H                    -0.11916  -0.66193  -0.79081 
 Cl                   -3.52916   1.75286   0. 
 N                    -2.38916  -0.22167  -1.99 
 H                    -1.90835   0.58932  -2.32333 
 H                    -1.92723  -1.04357  -2.32333 
 H                    -3.33197  -0.22168   2.32333 
 H                    -3.33191  -0.21078  -2.32333 
 
 NAtoms=     14 NQM=       14 NQMF=       0 NMMI=      0 NMMIF=      0
                NMic=       0 NMicF=      0.
                    Isotopes and Nuclear Properties:
 (Nuclear quadrupole moments (NQMom) in fm**2, nuclear magnetic moments (NMagM)
  in nuclear magnetons)

  Atom         1           2           3           4           5           6           7           8           9          10
 IAtWgt=         195          14           1           1          35          16           1           1          35          14
 AtmWgt= 194.9648000  14.0030740   1.0078250   1.0078250  34.9688527  15.9949146   1.0078250   1.0078250  34.9688527  14.0030740
 NucSpn=           1           2           1           1           3           0           1           1           3           2
 AtZEff=   0.0000000   0.0000000   0.0000000   0.0000000   0.0000000   0.0000000   0.0000000   0.0000000   0.0000000   0.0000000
 NQMom=    0.0000000   2.0440000   0.0000000   0.0000000  -8.1650000   0.0000000   0.0000000   0.0000000  -8.1650000   2.0440000
 NMagM=    0.6095000   0.4037610   2.7928460   2.7928460   0.8218740   0.0000000   2.7928460   2.7928460   0.8218740   0.4037610
 AtZNuc=  78.0000000   7.0000000   1.0000000   1.0000000  17.0000000   8.0000000   1.0000000   1.0000000  17.0000000   7.0000000

  Atom        11          12          13          14
 IAtWgt=           1           1           1           1
 AtmWgt=   1.0078250   1.0078250   1.0078250   1.0078250
 NucSpn=           1           1           1           1
 AtZEff=   0.0000000   0.0000000   0.0000000   0.0000000
 NQMom=    0.0000000   0.0000000   0.0000000   0.0000000
 NMagM=    2.7928460   2.7928460   2.7928460   2.7928460
 AtZNuc=   1.0000000   1.0000000   1.0000000   1.0000000
 Leave Link  101 at Wed Dec 23 10:08:32 2020, MaxMem=  4026531840 cpu:        10.1
 (Enter /home/scicons/Gaussian09D/Gaussian09.D01/l103.exe)

 GradGradGradGradGradGradGradGradGradGradGradGradGradGradGradGradGradGrad
 Berny optimization.
 Initialization pass.
                           ----------------------------
                           !    Initial Parameters    !
                           ! (Angstroms and Degrees)  !
 --------------------------                            --------------------------
 ! Name  Definition              Value          Derivative Info.                !
 --------------------------------------------------------------------------------
 ! R1    R(1,2)                  1.99           calculate D2E/DX2 analytically  !
 ! R2    R(1,5)                  2.28           calculate D2E/DX2 analytically  !
 ! R3    R(1,6)                  1.95           calculate D2E/DX2 analytically  !
 ! R4    R(1,9)                  2.28           calculate D2E/DX2 analytically  !
 ! R5    R(1,10)                 1.99           calculate D2E/DX2 analytically  !
 ! R6    R(2,3)                  1.0            calculate D2E/DX2 analytically  !
 ! R7    R(2,4)                  1.0            calculate D2E/DX2 analytically  !
 ! R8    R(2,13)                 1.0            calculate D2E/DX2 analytically  !
 ! R9    R(6,7)                  0.96           calculate D2E/DX2 analytically  !
 ! R10   R(6,8)                  0.96           calculate D2E/DX2 analytically  !
 ! R11   R(10,11)                1.0            calculate D2E/DX2 analytically  !
 ! R12   R(10,12)                1.0            calculate D2E/DX2 analytically  !
 ! R13   R(10,14)                1.0            calculate D2E/DX2 analytically  !
 ! A1    A(2,1,5)               90.0            calculate D2E/DX2 analytically  !
 ! A2    A(2,1,6)               90.0            calculate D2E/DX2 analytically  !
 ! A3    A(2,1,9)               90.0            calculate D2E/DX2 analytically  !
 ! A4    A(5,1,6)              120.0            calculate D2E/DX2 analytically  !
 ! A5    A(5,1,9)              120.0            calculate D2E/DX2 analytically  !
 ! A6    A(5,1,10)              90.0            calculate D2E/DX2 analytically  !
 ! A7    A(6,1,9)              120.0            calculate D2E/DX2 analytically  !
 ! A8    A(6,1,10)              90.0            calculate D2E/DX2 analytically  !
 ! A9    A(9,1,10)              90.0            calculate D2E/DX2 analytically  !
 ! A10   A(1,2,3)              109.4712         calculate D2E/DX2 analytically  !
 ! A11   A(1,2,4)              109.4712         calculate D2E/DX2 analytically  !
 ! A12   A(1,2,13)             109.4712         calculate D2E/DX2 analytically  !
 ! A13   A(3,2,4)              109.4712         calculate D2E/DX2 analytically  !
 ! A14   A(3,2,13)             109.4712         calculate D2E/DX2 analytically  !
 ! A15   A(4,2,13)             109.4712         calculate D2E/DX2 analytically  !
 ! A16   A(1,6,7)              109.4712         calculate D2E/DX2 analytically  !
 ! A17   A(1,6,8)              109.4712         calculate D2E/DX2 analytically  !
 ! A18   A(7,6,8)              109.4712         calculate D2E/DX2 analytically  !
 ! A19   A(1,10,11)            109.4712         calculate D2E/DX2 analytically  !
 ! A20   A(1,10,12)            109.4712         calculate D2E/DX2 analytically  !
 ! A21   A(1,10,14)            109.4712         calculate D2E/DX2 analytically  !
 ! A22   A(11,10,12)           109.4712         calculate D2E/DX2 analytically  !
 ! A23   A(11,10,14)           109.4712         calculate D2E/DX2 analytically  !
 ! A24   A(12,10,14)           109.4712         calculate D2E/DX2 analytically  !
 ! A25   L(2,1,10,5,-1)        180.0            calculate D2E/DX2 analytically  !
 ! A26   L(2,1,10,5,-2)        180.0            calculate D2E/DX2 analytically  !
 ! D1    D(5,1,2,3)             60.0            calculate D2E/DX2 analytically  !
 ! D2    D(5,1,2,4)           -180.0            calculate D2E/DX2 analytically  !
 ! D3    D(5,1,2,13)           -60.0            calculate D2E/DX2 analytically  !
 ! D4    D(6,1,2,3)            -60.0            calculate D2E/DX2 analytically  !
 ! D5    D(6,1,2,4)             60.0            calculate D2E/DX2 analytically  !
 ! D6    D(6,1,2,13)          -180.0            calculate D2E/DX2 analytically  !
 ! D7    D(9,1,2,3)           -180.0            calculate D2E/DX2 analytically  !
 ! D8    D(9,1,2,4)            -60.0            calculate D2E/DX2 analytically  !
 ! D9    D(9,1,2,13)            60.0            calculate D2E/DX2 analytically  !
 ! D10   D(3,2,10,11)         -119.3376         calculate D2E/DX2 analytically  !
 ! D11   D(3,2,10,12)            0.6624         calculate D2E/DX2 analytically  !
 ! D12   D(3,2,10,14)          120.6624         calculate D2E/DX2 analytically  !
 ! D13   D(4,2,10,11)            0.6624         calculate D2E/DX2 analytically  !
 ! D14   D(4,2,10,12)          120.6624         calculate D2E/DX2 analytically  !
 ! D15   D(4,2,10,14)         -119.3376         calculate D2E/DX2 analytically  !
 ! D16   D(13,2,10,11)         120.6624         calculate D2E/DX2 analytically  !
 ! D17   D(13,2,10,12)        -119.3376         calculate D2E/DX2 analytically  !
 ! D18   D(13,2,10,14)           0.6624         calculate D2E/DX2 analytically  !
 ! D19   D(2,1,6,7)            -89.1053         calculate D2E/DX2 analytically  !
 ! D20   D(2,1,6,8)            150.8947         calculate D2E/DX2 analytically  !
 ! D21   D(5,1,6,7)           -179.1053         calculate D2E/DX2 analytically  !
 ! D22   D(5,1,6,8)             60.8947         calculate D2E/DX2 analytically  !
 ! D23   D(9,1,6,7)              0.8947         calculate D2E/DX2 analytically  !
 ! D24   D(9,1,6,8)           -119.1053         calculate D2E/DX2 analytically  !
 ! D25   D(10,1,6,7)            90.8947         calculate D2E/DX2 analytically  !
 ! D26   D(10,1,6,8)           -29.1053         calculate D2E/DX2 analytically  !
 ! D27   D(5,1,10,11)         -179.3376         calculate D2E/DX2 analytically  !
 ! D28   D(5,1,10,12)          -59.3376         calculate D2E/DX2 analytically  !
 ! D29   D(5,1,10,14)           60.6624         calculate D2E/DX2 analytically  !
 ! D30   D(6,1,10,11)          -59.3376         calculate D2E/DX2 analytically  !
 ! D31   D(6,1,10,12)           60.6624         calculate D2E/DX2 analytically  !
 ! D32   D(6,1,10,14)         -179.3376         calculate D2E/DX2 analytically  !
 ! D33   D(9,1,10,11)           60.6624         calculate D2E/DX2 analytically  !
 ! D34   D(9,1,10,12)         -179.3376         calculate D2E/DX2 analytically  !
 ! D35   D(9,1,10,14)          -59.3376         calculate D2E/DX2 analytically  !
 --------------------------------------------------------------------------------
 Trust Radius=3.00D-01 FncErr=1.00D-07 GrdErr=1.00D-06
 Number of steps in this run=     84 maximum allowed number of steps=    100.
 Search for a saddle point of order  1.
 GradGradGradGradGradGradGradGradGradGradGradGradGradGradGradGradGradGrad

 Leave Link  103 at Wed Dec 23 10:08:32 2020, MaxMem=  4026531840 cpu:         0.2
 (Enter /home/scicons/Gaussian09D/Gaussian09.D01/l202.exe)
                          Input orientation:                          
 ---------------------------------------------------------------------
 Center     Atomic      Atomic             Coordinates (Angstroms)
 Number     Number       Type             X           Y           Z
 ---------------------------------------------------------------------
      1         78           0       -2.389163   -0.221675    0.000000
      2          7           0       -2.389163   -0.221675    1.990000
      3          1           0       -1.917758   -1.038171    2.323333
      4          1           0       -1.917758    0.594822    2.323333
      5         17           0       -3.529163   -2.196213    0.000000
      6          8           0       -0.439163   -0.221675    0.000000
      7          1           0       -0.119163    0.683311    0.014133
      8          1           0       -0.119163   -0.661928   -0.790808
      9         17           0       -3.529163    1.752863    0.000000
     10          7           0       -2.389163   -0.221675   -1.990000
     11          1           0       -1.908350    0.589318   -2.323333
     12          1           0       -1.927228   -1.043567   -2.323333
     13          1           0       -3.331972   -0.221675    2.323333
     14          1           0       -3.331909   -0.210776   -2.323333
 ---------------------------------------------------------------------
                    Distance matrix (angstroms):
                    1          2          3          4          5
     1  Pt   0.000000
     2  N    1.990000   0.000000
     3  H    2.507343   1.000000   0.000000
     4  H    2.507343   1.000000   1.632993   0.000000
     5  Cl   2.280000   3.026301   3.055415   3.972956   0.000000
     6  O    1.950000   2.786144   2.872418   2.872419   3.667001
     7  H    2.443788   3.142602   3.395711   2.928341   4.463178
     8  H    2.443788   3.616575   3.615851   3.809494   3.821977
     9  Cl   2.280000   3.026301   3.972956   3.055415   3.949076
    10  N    1.990000   3.980000   4.415171   4.415171   3.026301
    11  H    2.507343   4.415171   4.923446   4.646679   3.972919
    12  H    2.507343   4.415171   4.646679   4.927060   3.048387
    13  H    2.507343   1.000000   1.632993   1.632993   3.055415
    14  H    2.507343   4.415171   4.927060   4.923446   3.062474
                    6          7          8          9         10
     6  O    0.000000
     7  H    0.960000   0.000000
     8  H    0.960000   1.567673   0.000000
     9  Cl   3.667001   3.573827   4.252610   0.000000
    10  N    2.786144   3.160451   2.604762   3.026301   0.000000
    11  H    2.866025   2.945128   2.667479   3.062474   1.000000
    12  H    2.878841   3.422712   2.400705   3.972919   1.000000
    13  H    3.710286   4.058762   4.495980   3.055415   4.415171
    14  H    3.710253   4.072454   3.588023   3.048387   1.000000
                   11         12         13         14
    11  H    0.000000
    12  H    1.632993   0.000000
    13  H    4.927060   4.923446   0.000000
    14  H    1.632993   1.632993   4.646679   0.000000
 Stoichiometry    Cl2H8N2OPt
 Framework group  C1[X(Cl2H8N2OPt)]
 Deg. of freedom    36
 Full point group                 C1      NOp   1
 Largest Abelian subgroup         C1      NOp   1
 Largest concise Abelian subgroup C1      NOp   1
                         Standard orientation:                         
 ---------------------------------------------------------------------
 Center     Atomic      Atomic             Coordinates (Angstroms)
 Number     Number       Type             X           Y           Z
 ---------------------------------------------------------------------
      1         78           0        0.000406    0.048684    0.121920
      2          7           0       -0.013044   -1.767012    0.936269
      3          1           0        0.790821   -1.876044    1.521003
      4          1           0       -0.841755   -1.880393    1.484341
      5         17           0        1.999033   -0.412622   -0.873612
      6          8           0       -0.041663    0.846757    1.900631
      7          1           0       -0.953417    0.962417    2.177988
      8          1           0        0.396919    1.700436    1.878790
      9         17           0       -1.949033   -0.423140   -0.962270
     10          7           0        0.013856    1.864381   -0.692429
     11          1           0       -0.805049    2.363139   -0.408466
     12          1           0        0.827825    2.359761   -0.389027
     13          1           0        0.005044   -2.457011    0.212684
     14          1           0        0.025551    1.782653   -1.689015
 ---------------------------------------------------------------------
 Rotational constants (GHZ):      1.6687293      1.2023503      1.1609593
 Leave Link  202 at Wed Dec 23 10:08:32 2020, MaxMem=  4026531840 cpu:         0.2
 (Enter /home/scicons/Gaussian09D/Gaussian09.D01/l301.exe)
 Standard basis: def2TZVP (5D, 7F)
 Ernie: Thresh=  0.10000D-02 Tol=  0.10000D-05 Strict=F.
 There are   286 symmetry adapted cartesian basis functions of A   symmetry.
 There are   255 symmetry adapted basis functions of A   symmetry.
   255 basis functions,   430 primitive gaussians,   286 cartesian basis functions
    41 alpha electrons       41 beta electrons
       nuclear repulsion energy       563.5540190839 Hartrees.
 IExCor=  402 DFT=T Ex+Corr=B3LYP ExCW=0 ScaHFX=  0.200000
 ScaDFX=  0.800000  0.720000  1.000000  0.810000 ScalE2=  1.000000  1.000000
 IRadAn=      0 IRanWt=     -1 IRanGd=            0 ICorTp=0 IEmpDi=141
 NAtoms=   14 NActive=   14 NUniq=   14 SFac= 1.00D+00 NAtFMM=   60 NAOKFM=F Big=F
 Integral buffers will be    131072 words long.
 Raffenetti 2 integral format.
 Two-electron integral symmetry is turned on.
 R6Disp:  Grimme-D3(BJ) Dispersion energy=       -0.0302453151 Hartrees.
 Nuclear repulsion after empirical dispersion term =      563.5237737689 Hartrees.
 Force inversion solution in PCM.
 ------------------------------------------------------------------------------
 Polarizable Continuum Model (PCM)
 =================================
 Model                : PCM (using non-symmetric T matrix).
 Atomic radii         : SMD-Coulomb.
 Polarization charges : Total charges.
 Charge compensation  : None.
 Solution method      : Matrix inversion.
 Cavity type          : VdW (van der Waals Surface) (Alpha=1.000).
 Cavity algorithm     : GePol (No added spheres)
                        Default sphere list used, NSphG=   14.
                        Lebedev-Laikov grids with approx.  5.0 points / Ang**2.
                        Smoothing algorithm: Karplus/York (Gamma=1.0000).
                        Polarization charges: spherical gaussians, with
                                              point-specific exponents (IZeta= 3).
                        Self-potential: point-specific (ISelfS= 7).
                        Self-field    : sphere-specific E.n sum rule (ISelfD= 2).
 1st derivatives      : Analytical E(r).r(x)/FMM algorithm (CHGder, D1EAlg=3).
                        Cavity 1st derivative terms included.
 2nd derivatives      : Analytical E(r).r(xy)/FMM algorithm (CHGder, D2EAlg=3).
                        Cavity 2nd derivative terms included.
 Solvent              : Water, Eps=  78.355300 Eps(inf)=   1.777849
 ------------------------------------------------------------------------------
 Spheres list:
 ISph  on   Nord     Re0    Alpha      Xe            Ye            Ze
    1  Pt      1    1.7500  1.000      0.000406      0.048684      0.121920
    2   N      2    1.8900  1.000     -0.013044     -1.767012      0.936269
    3   H      3    1.2000  1.000      0.790821     -1.876044      1.521003
    4   H      4    1.2000  1.000     -0.841755     -1.880393      1.484341
    5  Cl      5    2.3800  1.000      1.999033     -0.412622     -0.873612
    6   O      6    1.5200  1.000     -0.041663      0.846757      1.900631
    7   H      7    1.2000  1.000     -0.953417      0.962417      2.177988
    8   H      8    1.2000  1.000      0.396919      1.700436      1.878790
    9  Cl      9    2.3800  1.000     -1.949033     -0.423140     -0.962270
   10   N     10    1.8900  1.000      0.013856      1.864381     -0.692429
   11   H     11    1.2000  1.000     -0.805049      2.363139     -0.408466
   12   H     12    1.2000  1.000      0.827825      2.359761     -0.389027
   13   H     13    1.2000  1.000      0.005044     -2.457011      0.212684
   14   H     14    1.2000  1.000      0.025551      1.782653     -1.689015
 ------------------------------------------------------------------------------
 GePol: Number of generator spheres                  =      14
 GePol: Total number of spheres                      =      14
 GePol: Number of exposed spheres                    =      14 (100.00%)
 GePol: Number of points                             =    1384
 GePol: Average weight of points                     =       0.13
 GePol: Minimum weight of points                     =   0.19D-07
 GePol: Maximum weight of points                     =    0.21991
 GePol: Number of points with low weight             =      61
 GePol: Fraction of low-weight points (<1% of avg)   =       4.41%
 GePol: Cavity surface area                          =    184.804 Ang**2
 GePol: Cavity volume                                =    170.601 Ang**3
 ------------------------------------------------------------------------------
 Atomic radii for non-electrostatic terms: SMD-CDS.
 ------------------------------------------------------------------------------
 PCM non-electrostatic energy =         0.0089810845 Hartrees.
 Nuclear repulsion after PCM non-electrostatic terms =      563.5327548533 Hartrees.
 Leave Link  301 at Wed Dec 23 10:08:32 2020, MaxMem=  4026531840 cpu:         1.4
 (Enter /home/scicons/Gaussian09D/Gaussian09.D01/l302.exe)
 NPDir=0 NMtPBC=     1 NCelOv=     1 NCel=       1 NClECP=     1 NCelD=      1
         NCelK=      1 NCelE2=     1 NClLst=     1 CellRange=     0.0.
 One-electron integrals computed using PRISM.
   1 Symmetry operations used in ECPInt.
 ECPInt:  NShTT=    5565 NPrTT=   17197 LenC2=    5427 LenP2D=   12991.
 LDataN:  DoStor=T MaxTD1= 8 Len=  415
 NBasis=   255 RedAO= T EigKep=  1.56D-03  NBF=   255
 NBsUse=   255 1.00D-06 EigRej= -1.00D+00 NBFU=   255
 Precomputing XC quadrature grid using
 IXCGrd= 4 IRadAn=           0 IRanWt=          -1 IRanGd=           0 AccXCQ= 0.00D+00.
 Defaulting to unpruned grid for atomic number  78.
 Generated NRdTot=       0 NPtTot=           0 NUsed=           0 NTot=          32
 NSgBfM=   284   284   284   284   284 MxSgAt=    14 MxSgA2=    14.
 Leave Link  302 at Wed Dec 23 10:08:33 2020, MaxMem=  4026531840 cpu:         8.3
 (Enter /home/scicons/Gaussian09D/Gaussian09.D01/l303.exe)
 DipDrv:  MaxL=1.
 Leave Link  303 at Wed Dec 23 10:08:33 2020, MaxMem=  4026531840 cpu:         0.6
 (Enter /home/scicons/Gaussian09D/Gaussian09.D01/l401.exe)
 ExpMin= 4.92D-02 ExpMax= 6.95D+04 ExpMxC= 2.37D+03 IAcc=2 IRadAn=         4 AccDes= 0.00D+00
 Harris functional with IExCor=  402 and IRadAn=       4 diagonalized for initial guess.
 HarFok:  IExCor=  402 AccDes= 0.00D+00 IRadAn=         4 IDoV= 1 UseB2=F ITyADJ=14
 ICtDFT=  3500011 ScaDFX=  1.000000  1.000000  1.000000  1.000000
 Defaulting to unpruned grid for atomic number  78.
 Defaulting to unpruned grid for atomic number  78.
 Defaulting to unpruned grid for atomic number  78.
 Defaulting to unpruned grid for atomic number  78.
 Defaulting to unpruned grid for atomic number  78.
 Defaulting to unpruned grid for atomic number  78.
 Defaulting to unpruned grid for atomic number  78.
 Defaulting to unpruned grid for atomic number  78.
 Defaulting to unpruned grid for atomic number  78.
 Defaulting to unpruned grid for atomic number  78.
 Defaulting to unpruned grid for atomic number  78.
 Defaulting to unpruned grid for atomic number  78.
 Defaulting to unpruned grid for atomic number  78.
 Defaulting to unpruned grid for atomic number  78.
 Defaulting to unpruned grid for atomic number  78.
 Defaulting to unpruned grid for atomic number  78.
 Defaulting to unpruned grid for atomic number  78.
 Defaulting to unpruned grid for atomic number  78.
 Defaulting to unpruned grid for atomic number  78.
 Defaulting to unpruned grid for atomic number  78.
 Defaulting to unpruned grid for atomic number  78.
 Defaulting to unpruned grid for atomic number  78.
 Defaulting to unpruned grid for atomic number  78.
 Defaulting to unpruned grid for atomic number  78.
 FoFCou: FMM=F IPFlag=           0 FMFlag=      100000 FMFlg1=           0
         NFxFlg=           0 DoJE=T BraDBF=F KetDBF=T FulRan=T
         wScrn=  0.000000 ICntrl=     500 IOpCl=  0 I1Cent=   200000004 NGrid=           0
         NMat0=    1 NMatS0=      1 NMatT0=    0 NMatD0=    1 NMtDS0=    0 NMtDT0=    0
 Petite list used in FoFCou.
 Harris En= -1229.09672786884    
 JPrj=0 DoOrth=F DoCkMO=F.
 Leave Link  401 at Wed Dec 23 10:08:33 2020, MaxMem=  4026531840 cpu:         6.7
 (Enter /home/scicons/Gaussian09D/Gaussian09.D01/l502.exe)
 Closed shell SCF:
 Using DIIS extrapolation, IDIIS=  1040.
 Integral symmetry usage will be decided dynamically.
 Keep R1 ints in memory in canonical form, NReq=544793834.
 IVT=      272906 IEndB=      272906 NGot=  4026531840 MDV=  3493557815
 LenX=  3493557815 LenY=  3493475578
 Requested convergence on RMS density matrix=1.00D-08 within 128 cycles.
 Requested convergence on MAX density matrix=1.00D-06.
 Requested convergence on             energy=1.00D-06.
 No special actions if energy rises.
 FoFCou: FMM=F IPFlag=           0 FMFlag=           0 FMFlg1=           0
         NFxFlg=           0 DoJE=F BraDBF=F KetDBF=F FulRan=T
         wScrn=  0.000000 ICntrl=     600 IOpCl=  0 I1Cent=           0 NGrid=           0
         NMat0=    1 NMatS0=  32640 NMatT0=    0 NMatD0=    1 NMtDS0=    0 NMtDT0=    0
 Symmetry not used in FoFCou.

 Cycle   1  Pass 1  IDiag  1:
 Defaulting to unpruned grid for atomic number  78.
 Defaulting to unpruned grid for atomic number  78.
 Defaulting to unpruned grid for atomic number  78.
 Defaulting to unpruned grid for atomic number  78.
 Defaulting to unpruned grid for atomic number  78.
 Defaulting to unpruned grid for atomic number  78.
 Defaulting to unpruned grid for atomic number  78.
 Defaulting to unpruned grid for atomic number  78.
 Defaulting to unpruned grid for atomic number  78.
 Defaulting to unpruned grid for atomic number  78.
 Defaulting to unpruned grid for atomic number  78.
 Defaulting to unpruned grid for atomic number  78.
 Defaulting to unpruned grid for atomic number  78.
 Defaulting to unpruned grid for atomic number  78.
 Defaulting to unpruned grid for atomic number  78.
 Defaulting to unpruned grid for atomic number  78.
 Defaulting to unpruned grid for atomic number  78.
 Defaulting to unpruned grid for atomic number  78.
 Defaulting to unpruned grid for atomic number  78.
 Defaulting to unpruned grid for atomic number  78.
 Defaulting to unpruned grid for atomic number  78.
 Defaulting to unpruned grid for atomic number  78.
 Defaulting to unpruned grid for atomic number  78.
 Defaulting to unpruned grid for atomic number  78.
 Inv3:  Mode=1 IEnd=     5746368.
 Iteration    1 A*A^-1 deviation from unit magnitude is 5.55D-15 for    368.
 Iteration    1 A*A^-1 deviation from orthogonality  is 1.76D-15 for    508     30.
 Iteration    1 A^-1*A deviation from unit magnitude is 4.22D-15 for   1376.
 Iteration    1 A^-1*A deviation from orthogonality  is 3.23D-14 for   1082    577.
 E= -1229.20756485774    
 DIIS: error= 3.35D-02 at cycle   1 NSaved=   1.
 NSaved= 1 IEnMin= 1 EnMin= -1229.20756485774     IErMin= 1 ErrMin= 3.35D-02
 ErrMax= 3.35D-02  0.00D+00 EMaxC= 1.00D-01 BMatC= 6.10D-01 BMatP= 6.10D-01
 IDIUse=3 WtCom= 6.65D-01 WtEn= 3.35D-01
 Coeff-Com:  0.100D+01
 Coeff-En:   0.100D+01
 Coeff:      0.100D+01
 Gap=     0.309 Goal=   None    Shift=    0.000
 GapD=    0.309 DampG=1.000 DampE=0.250 DampFc=0.2500 IDamp=-1.
 Damping current iteration by 2.50D-01
 RMSDP=5.10D-03 MaxDP=3.33D-01              OVMax= 3.72D-01

 Cycle   2  Pass 1  IDiag  1:
 E= -1229.35023290164     Delta-E=       -0.142668043904 Rises=F Damp=T
 DIIS: error= 1.71D-02 at cycle   2 NSaved=   2.
 NSaved= 2 IEnMin= 2 EnMin= -1229.35023290164     IErMin= 2 ErrMin= 1.71D-02
 ErrMax= 1.71D-02  0.00D+00 EMaxC= 1.00D-01 BMatC= 1.01D-01 BMatP= 6.10D-01
 IDIUse=3 WtCom= 8.29D-01 WtEn= 1.71D-01
 Coeff-Com: -0.531D+00 0.153D+01
 Coeff-En:   0.000D+00 0.100D+01
 Coeff:     -0.441D+00 0.144D+01
 Gap=     0.164 Goal=   None    Shift=    0.000
 RMSDP=1.19D-03 MaxDP=7.44D-02 DE=-1.43D-01 OVMax= 2.82D-01

 Cycle   3  Pass 1  IDiag  1:
 E= -1229.57484032967     Delta-E=       -0.224607428027 Rises=F Damp=F
 DIIS: error= 4.10D-03 at cycle   3 NSaved=   3.
 NSaved= 3 IEnMin= 3 EnMin= -1229.57484032967     IErMin= 3 ErrMin= 4.10D-03
 ErrMax= 4.10D-03  0.00D+00 EMaxC= 1.00D-01 BMatC= 6.64D-03 BMatP= 1.01D-01
 IDIUse=3 WtCom= 9.59D-01 WtEn= 4.10D-02
 Coeff-Com: -0.148D+00 0.399D+00 0.749D+00
 Coeff-En:   0.000D+00 0.000D+00 0.100D+01
 Coeff:     -0.142D+00 0.382D+00 0.760D+00
 Gap=     0.142 Goal=   None    Shift=    0.000
 RMSDP=6.14D-04 MaxDP=2.00D-02 DE=-2.25D-01 OVMax= 2.85D-02

 Cycle   4  Pass 1  IDiag  1:
 E= -1229.57663252071     Delta-E=       -0.001792191043 Rises=F Damp=F
 DIIS: error= 3.28D-03 at cycle   4 NSaved=   4.
 NSaved= 4 IEnMin= 4 EnMin= -1229.57663252071     IErMin= 4 ErrMin= 3.28D-03
 ErrMax= 3.28D-03  0.00D+00 EMaxC= 1.00D-01 BMatC= 4.90D-03 BMatP= 6.64D-03
 IDIUse=3 WtCom= 9.67D-01 WtEn= 3.28D-02
 Coeff-Com: -0.328D-01 0.773D-01 0.460D+00 0.496D+00
 Coeff-En:   0.000D+00 0.000D+00 0.418D+00 0.582D+00
 Coeff:     -0.317D-01 0.747D-01 0.459D+00 0.498D+00
 Gap=     0.136 Goal=   None    Shift=    0.000
 RMSDP=2.50D-04 MaxDP=9.48D-03 DE=-1.79D-03 OVMax= 1.48D-02

 Cycle   5  Pass 1  IDiag  1:
 E= -1229.58046692347     Delta-E=       -0.003834402760 Rises=F Damp=F
 DIIS: error= 3.96D-04 at cycle   5 NSaved=   5.
 NSaved= 5 IEnMin= 5 EnMin= -1229.58046692347     IErMin= 5 ErrMin= 3.96D-04
 ErrMax= 3.96D-04  0.00D+00 EMaxC= 1.00D-01 BMatC= 6.48D-05 BMatP= 4.90D-03
 IDIUse=3 WtCom= 9.96D-01 WtEn= 3.96D-03
 Coeff-Com: -0.959D-02 0.213D-01 0.159D+00 0.189D+00 0.641D+00
 Coeff-En:   0.000D+00 0.000D+00 0.000D+00 0.000D+00 0.100D+01
 Coeff:     -0.955D-02 0.213D-01 0.158D+00 0.188D+00 0.642D+00
 Gap=     0.134 Goal=   None    Shift=    0.000
 RMSDP=4.54D-05 MaxDP=1.85D-03 DE=-3.83D-03 OVMax= 3.37D-03

 Cycle   6  Pass 1  IDiag  1:
 E= -1229.58050533526     Delta-E=       -0.000038411783 Rises=F Damp=F
 DIIS: error= 2.60D-04 at cycle   6 NSaved=   6.
 NSaved= 6 IEnMin= 6 EnMin= -1229.58050533526     IErMin= 6 ErrMin= 2.60D-04
 ErrMax= 2.60D-04  0.00D+00 EMaxC= 1.00D-01 BMatC= 2.44D-05 BMatP= 6.48D-05
 IDIUse=3 WtCom= 9.97D-01 WtEn= 2.60D-03
 Coeff-Com:  0.142D-03-0.194D-02 0.230D-01 0.318D-01 0.377D+00 0.570D+00
 Coeff-En:   0.000D+00 0.000D+00 0.000D+00 0.000D+00 0.240D+00 0.760D+00
 Coeff:      0.142D-03-0.194D-02 0.230D-01 0.317D-01 0.377D+00 0.570D+00
 Gap=     0.134 Goal=   None    Shift=    0.000
 RMSDP=1.36D-05 MaxDP=4.69D-04 DE=-3.84D-05 OVMax= 9.09D-04

 Cycle   7  Pass 1  IDiag  1:
 E= -1229.58052152992     Delta-E=       -0.000016194662 Rises=F Damp=F
 DIIS: error= 3.16D-05 at cycle   7 NSaved=   7.
 NSaved= 7 IEnMin= 7 EnMin= -1229.58052152992     IErMin= 7 ErrMin= 3.16D-05
 ErrMax= 3.16D-05  0.00D+00 EMaxC= 1.00D-01 BMatC= 5.27D-07 BMatP= 2.44D-05
 IDIUse=1 WtCom= 1.00D+00 WtEn= 0.00D+00
 Coeff-Com:  0.327D-03-0.138D-02 0.777D-02 0.105D-01 0.150D+00 0.240D+00
 Coeff-Com:  0.592D+00
 Coeff:      0.327D-03-0.138D-02 0.777D-02 0.105D-01 0.150D+00 0.240D+00
 Coeff:      0.592D+00
 Gap=     0.134 Goal=   None    Shift=    0.000
 RMSDP=2.95D-06 MaxDP=1.38D-04 DE=-1.62D-05 OVMax= 1.64D-04

 Cycle   8  Pass 1  IDiag  1:
 E= -1229.58052191725     Delta-E=       -0.000000387331 Rises=F Damp=F
 DIIS: error= 1.19D-05 at cycle   8 NSaved=   8.
 NSaved= 8 IEnMin= 8 EnMin= -1229.58052191725     IErMin= 8 ErrMin= 1.19D-05
 ErrMax= 1.19D-05  0.00D+00 EMaxC= 1.00D-01 BMatC= 7.43D-08 BMatP= 5.27D-07
 IDIUse=1 WtCom= 1.00D+00 WtEn= 0.00D+00
 Coeff-Com:  0.200D-03-0.260D-03-0.267D-02-0.370D-02-0.710D-02-0.683D-02
 Coeff-Com:  0.255D+00 0.765D+00
 Coeff:      0.200D-03-0.260D-03-0.267D-02-0.370D-02-0.710D-02-0.683D-02
 Coeff:      0.255D+00 0.765D+00
 Gap=     0.134 Goal=   None    Shift=    0.000
 RMSDP=1.36D-06 MaxDP=3.90D-05 DE=-3.87D-07 OVMax= 7.53D-05

 Cycle   9  Pass 1  IDiag  1:
 E= -1229.58052197433     Delta-E=       -0.000000057081 Rises=F Damp=F
 DIIS: error= 1.28D-06 at cycle   9 NSaved=   9.
 NSaved= 9 IEnMin= 9 EnMin= -1229.58052197433     IErMin= 9 ErrMin= 1.28D-06
 ErrMax= 1.28D-06  0.00D+00 EMaxC= 1.00D-01 BMatC= 9.34D-10 BMatP= 7.43D-08
 IDIUse=1 WtCom= 1.00D+00 WtEn= 0.00D+00
 Coeff-Com:  0.401D-04-0.372D-04-0.969D-03-0.139D-02-0.495D-02-0.688D-02
 Coeff-Com:  0.651D-01 0.232D+00 0.717D+00
 Coeff:      0.401D-04-0.372D-04-0.969D-03-0.139D-02-0.495D-02-0.688D-02
 Coeff:      0.651D-01 0.232D+00 0.717D+00
 Gap=     0.134 Goal=   None    Shift=    0.000
 RMSDP=1.72D-07 MaxDP=5.11D-06 DE=-5.71D-08 OVMax= 1.37D-05

 Cycle  10  Pass 1  IDiag  1:
 E= -1229.58052197515     Delta-E=       -0.000000000820 Rises=F Damp=F
 DIIS: error= 5.40D-07 at cycle  10 NSaved=  10.
 NSaved=10 IEnMin=10 EnMin= -1229.58052197515     IErMin=10 ErrMin= 5.40D-07
 ErrMax= 5.40D-07  0.00D+00 EMaxC= 1.00D-01 BMatC= 9.92D-11 BMatP= 9.34D-10
 IDIUse=1 WtCom= 1.00D+00 WtEn= 0.00D+00
 Coeff-Com: -0.645D-05 0.140D-04-0.147D-03-0.231D-03-0.129D-02-0.207D-02
 Coeff-Com:  0.348D-02 0.233D-01 0.257D+00 0.720D+00
 Coeff:     -0.645D-05 0.140D-04-0.147D-03-0.231D-03-0.129D-02-0.207D-02
 Coeff:      0.348D-02 0.233D-01 0.257D+00 0.720D+00
 Gap=     0.134 Goal=   None    Shift=    0.000
 RMSDP=6.79D-08 MaxDP=2.53D-06 DE=-8.20D-10 OVMax= 4.97D-06

 Cycle  11  Pass 1  IDiag  1:
 E= -1229.58052197527     Delta-E=       -0.000000000120 Rises=F Damp=F
 DIIS: error= 4.39D-07 at cycle  11 NSaved=  11.
 NSaved=11 IEnMin=11 EnMin= -1229.58052197527     IErMin=11 ErrMin= 4.39D-07
 ErrMax= 4.39D-07  0.00D+00 EMaxC= 1.00D-01 BMatC= 2.64D-11 BMatP= 9.92D-11
 IDIUse=1 WtCom= 1.00D+00 WtEn= 0.00D+00
 Coeff-Com: -0.691D-05 0.106D-04 0.862D-05-0.265D-05-0.244D-03-0.496D-03
 Coeff-Com: -0.440D-02-0.990D-02 0.772D-01 0.407D+00 0.531D+00
 Coeff:     -0.691D-05 0.106D-04 0.862D-05-0.265D-05-0.244D-03-0.496D-03
 Coeff:     -0.440D-02-0.990D-02 0.772D-01 0.407D+00 0.531D+00
 Gap=     0.134 Goal=   None    Shift=    0.000
 RMSDP=2.30D-08 MaxDP=8.01D-07 DE=-1.20D-10 OVMax= 1.64D-06

 Cycle  12  Pass 1  IDiag  1:
 E= -1229.58052197526     Delta-E=        0.000000000011 Rises=F Damp=F
 DIIS: error= 7.39D-08 at cycle  12 NSaved=  12.
 NSaved=12 IEnMin=11 EnMin= -1229.58052197527     IErMin=12 ErrMin= 7.39D-08
 ErrMax= 7.39D-08  0.00D+00 EMaxC= 1.00D-01 BMatC= 1.85D-12 BMatP= 2.64D-11
 IDIUse=1 WtCom= 1.00D+00 WtEn= 0.00D+00
 Coeff-Com:  0.346D-07-0.358D-06 0.230D-04 0.276D-04 0.109D-03 0.121D-03
 Coeff-Com: -0.191D-02-0.661D-02-0.980D-02 0.297D-01 0.191D+00 0.797D+00
 Coeff:      0.346D-07-0.358D-06 0.230D-04 0.276D-04 0.109D-03 0.121D-03
 Coeff:     -0.191D-02-0.661D-02-0.980D-02 0.297D-01 0.191D+00 0.797D+00
 Gap=     0.134 Goal=   None    Shift=    0.000
 RMSDP=1.28D-08 MaxDP=4.95D-07 DE= 1.09D-11 OVMax= 1.05D-06

 Cycle  13  Pass 1  IDiag  1:
 E= -1229.58052197528     Delta-E=       -0.000000000021 Rises=F Damp=F
 DIIS: error= 1.72D-08 at cycle  13 NSaved=  13.
 NSaved=13 IEnMin=13 EnMin= -1229.58052197528     IErMin=13 ErrMin= 1.72D-08
 ErrMax= 1.72D-08  0.00D+00 EMaxC= 1.00D-01 BMatC= 1.07D-13 BMatP= 1.85D-12
 IDIUse=1 WtCom= 1.00D+00 WtEn= 0.00D+00
 Coeff-Com:  0.769D-06-0.122D-05 0.707D-05 0.935D-05 0.512D-04 0.614D-04
 Coeff-Com: -0.252D-03-0.115D-02-0.778D-02-0.238D-01 0.170D-01 0.248D+00
 Coeff-Com:  0.768D+00
 Coeff:      0.769D-06-0.122D-05 0.707D-05 0.935D-05 0.512D-04 0.614D-04
 Coeff:     -0.252D-03-0.115D-02-0.778D-02-0.238D-01 0.170D-01 0.248D+00
 Coeff:      0.768D+00
 Gap=     0.134 Goal=   None    Shift=    0.000
 RMSDP=3.52D-09 MaxDP=1.29D-07 DE=-2.14D-11 OVMax= 2.15D-07

 Error on total polarization charges =  0.02027
 SCF Done:  E(RB3LYP) =  -1229.58052198     A.U. after   13 cycles
            NFock= 13  Conv=0.35D-08     -V/T= 2.0698
 KE= 1.149387344370D+03 PE=-4.013135061929D+03 EE= 1.070634440731D+03
 SMD-CDS (non-electrostatic) energy       (kcal/mol) =       5.64
 (included in total energy above)
 Leave Link  502 at Wed Dec 23 10:08:52 2020, MaxMem=  4026531840 cpu:       197.7
 (Enter /home/scicons/Gaussian09D/Gaussian09.D01/l801.exe)
 DoSCS=F DFT=T ScalE2(SS,OS)=  1.000000  1.000000
 Range of M.O.s used for correlation:     1   255
 NBasis=   255 NAE=    41 NBE=    41 NFC=     0 NFV=     0
 NROrb=    255 NOA=    41 NOB=    41 NVA=   214 NVB=   214
 Leave Link  801 at Wed Dec 23 10:08:52 2020, MaxMem=  4026531840 cpu:         0.4
 (Enter /home/scicons/Gaussian09D/Gaussian09.D01/l1101.exe)
 Using compressed storage, NAtomX=    14.
 Will process     15 centers per pass.
   1 Symmetry operations used in ECPInt.
 ECPInt:  NShTT=    5565 NPrTT=   17197 LenC2=    5427 LenP2D=   12991.
 LDataN:  DoStor=T MaxTD1= 9 Len=  602
 R6Disp: Adding Grimme-D3(BJ) dispersion energy 1st derivatives to the gradient.
 Leave Link 1101 at Wed Dec 23 10:08:53 2020, MaxMem=  4026531840 cpu:        26.0
 (Enter /home/scicons/Gaussian09D/Gaussian09.D01/l1102.exe)
 Symmetrizing basis deriv contribution to polar:
 IMax=3 JMax=2 DiffMx= 0.00D+00
 Leave Link 1102 at Wed Dec 23 10:08:53 2020, MaxMem=  4026531840 cpu:         0.6
 (Enter /home/scicons/Gaussian09D/Gaussian09.D01/l1110.exe)
 Forming Gx(P) for the SCF density, NAtomX=    14.
 Integral derivatives from FoFJK, PRISM(SPDF).
 Do as many integral derivatives as possible in FoFJK.
 G2DrvN: MDV=    4026531624.
 G2DrvN: will do    15 centers at a time, making    1 passes.
 Calling FoFCou, ICntrl=  3107 FMM=F I1Cent=   0 AccDes= 0.00D+00.
 FoFJK:  IHMeth= 1 ICntrl=    3107 DoSepK=F KAlg= 0 I1Cent=   0 FoldK=F
 IRaf=         0 NMat=   1 IRICut=       1 DoRegI=T DoRafI=F ISym2E= 0.
 FoFCou: FMM=F IPFlag=           0 FMFlag=      100000 FMFlg1=           0
         NFxFlg=           0 DoJE=F BraDBF=F KetDBF=F FulRan=T
         wScrn=  0.000000 ICntrl=    3107 IOpCl=  0 I1Cent=           0 NGrid=           0
         NMat0=    1 NMatS0=      1 NMatT0=    0 NMatD0=    1 NMtDS0=    0 NMtDT0=    0
 Symmetry not used in FoFCou.
 Defaulting to unpruned grid for atomic number  78.
 Defaulting to unpruned grid for atomic number  78.
 Defaulting to unpruned grid for atomic number  78.
 Defaulting to unpruned grid for atomic number  78.
 Defaulting to unpruned grid for atomic number  78.
 Defaulting to unpruned grid for atomic number  78.
 Defaulting to unpruned grid for atomic number  78.
 Defaulting to unpruned grid for atomic number  78.
 Defaulting to unpruned grid for atomic number  78.
 Defaulting to unpruned grid for atomic number  78.
 Defaulting to unpruned grid for atomic number  78.
 Defaulting to unpruned grid for atomic number  78.
 Defaulting to unpruned grid for atomic number  78.
 Defaulting to unpruned grid for atomic number  78.
 Defaulting to unpruned grid for atomic number  78.
 Defaulting to unpruned grid for atomic number  78.
 Defaulting to unpruned grid for atomic number  78.
 Defaulting to unpruned grid for atomic number  78.
 Defaulting to unpruned grid for atomic number  78.
 Defaulting to unpruned grid for atomic number  78.
 Defaulting to unpruned grid for atomic number  78.
 Defaulting to unpruned grid for atomic number  78.
 Defaulting to unpruned grid for atomic number  78.
 Defaulting to unpruned grid for atomic number  78.
 NEqPCM:  Using equilibrium solvation (IEInf=0, Eps=  78.3553, EpsInf=   1.7778)
 G2PCM: DoFxE=T DoFxN=T DoGrad=T DoDP/DQ/DG/TGxP=FFFF NFrqRd=   0 IEInf=0 SqF1=F DoCFld=F IF1Alg=4.
 GePol: Maximum number of non-zero 1st derivatives   =     381
 End of G2Drv F.D. properties file   721 does not exist.
 End of G2Drv F.D. properties file   722 does not exist.
 End of G2Drv F.D. properties file   788 does not exist.
 Leave Link 1110 at Wed Dec 23 10:09:07 2020, MaxMem=  4026531840 cpu:       334.7
 (Enter /home/scicons/Gaussian09D/Gaussian09.D01/l1002.exe)
 Minotr:  Closed shell wavefunction.
          IDoAtm=11111111111111
 NEqPCM:  Using equilibrium solvation (IEInf=0, Eps=  78.3553, EpsInf=   1.7778)
          Direct CPHF calculation.
          Differentiating once with respect to electric field.
                with respect to dipole field.
          Differentiating once with respect to nuclear coordinates.
          Requested convergence is 1.0D-08 RMS, and 1.0D-07 maximum.
          Secondary convergence is 1.0D-12 RMS, and 1.0D-12 maximum.
          NewPWx=T KeepS1=F KeepF1=F KeepIn=T MapXYZ=F SortEE=F KeepMc=T.
          MDV=    4026531441 using IRadAn=       2.
 Defaulting to unpruned grid for atomic number  78.
 Generate precomputed XC quadrature information.
 Keep R1 ints in memory in canonical form, NReq=544526104.
 FoFCou: FMM=F IPFlag=           0 FMFlag=           0 FMFlg1=           0
         NFxFlg=           0 DoJE=F BraDBF=F KetDBF=F FulRan=T
         wScrn=  0.000000 ICntrl=     600 IOpCl=  0 I1Cent=           0 NGrid=           0
         NMat0=    1 NMatS0=  32640 NMatT0=    0 NMatD0=    1 NMtDS0=    0 NMtDT0=    0
 Symmetry not used in FoFCou.
          Solving linear equations simultaneously, MaxMat=       0.
 Defaulting to unpruned grid for atomic number  78.
 Defaulting to unpruned grid for atomic number  78.
 Defaulting to unpruned grid for atomic number  78.
 Defaulting to unpruned grid for atomic number  78.
 Defaulting to unpruned grid for atomic number  78.
 Defaulting to unpruned grid for atomic number  78.
 Defaulting to unpruned grid for atomic number  78.
 Defaulting to unpruned grid for atomic number  78.
 Defaulting to unpruned grid for atomic number  78.
 Defaulting to unpruned grid for atomic number  78.
 Defaulting to unpruned grid for atomic number  78.
 Defaulting to unpruned grid for atomic number  78.
 Defaulting to unpruned grid for atomic number  78.
 Defaulting to unpruned grid for atomic number  78.
 Defaulting to unpruned grid for atomic number  78.
 Defaulting to unpruned grid for atomic number  78.
 Defaulting to unpruned grid for atomic number  78.
 Defaulting to unpruned grid for atomic number  78.
 Defaulting to unpruned grid for atomic number  78.
 Defaulting to unpruned grid for atomic number  78.
 Defaulting to unpruned grid for atomic number  78.
 Defaulting to unpruned grid for atomic number  78.
 Defaulting to unpruned grid for atomic number  78.
 Defaulting to unpruned grid for atomic number  78.
          There are    45 degrees of freedom in the 1st order CPHF.  IDoFFX=6 NUNeed=     3.
     42 vectors produced by pass  0 Test12= 1.95D-14 2.22D-09 XBig12= 9.20D+01 3.95D+00.
 AX will form    42 AO Fock derivatives at one time.
     42 vectors produced by pass  1 Test12= 1.95D-14 2.22D-09 XBig12= 1.24D+01 6.21D-01.
     42 vectors produced by pass  2 Test12= 1.95D-14 2.22D-09 XBig12= 3.61D-01 8.55D-02.
     42 vectors produced by pass  3 Test12= 1.95D-14 2.22D-09 XBig12= 2.38D-03 1.04D-02.
     42 vectors produced by pass  4 Test12= 1.95D-14 2.22D-09 XBig12= 1.44D-05 5.08D-04.
     42 vectors produced by pass  5 Test12= 1.95D-14 2.22D-09 XBig12= 7.44D-08 4.74D-05.
     16 vectors produced by pass  6 Test12= 1.95D-14 2.22D-09 XBig12= 1.56D-10 2.38D-06.
      3 vectors produced by pass  7 Test12= 1.95D-14 2.22D-09 XBig12= 2.16D-13 7.03D-08.
      1 vectors produced by pass  8 Test12= 1.95D-14 2.22D-09 XBig12= 3.52D-16 2.43D-09.
 InvSVY:  IOpt=1 It=  1 EMax= 1.42D-14
 Solved reduced A of dimension   272 with    45 vectors.
 FullF1:  Do perturbations    1 to     3.
 Isotropic polarizability for W=    0.000000      118.91 Bohr**3.
 End of Minotr F.D. properties file   721 does not exist.
 End of Minotr F.D. properties file   722 does not exist.
 End of Minotr F.D. properties file   788 does not exist.
 Leave Link 1002 at Wed Dec 23 10:09:31 2020, MaxMem=  4026531840 cpu:       531.9
 (Enter /home/scicons/Gaussian09D/Gaussian09.D01/l601.exe)
 Copying SCF densities to generalized density rwf, IOpCl= 0 IROHF=0.

 **********************************************************************

            Population analysis using the SCF density.

 **********************************************************************

 Orbital symmetries:
       Occupied  (A) (A) (A) (A) (A) (A) (A) (A) (A) (A) (A) (A)
                 (A) (A) (A) (A) (A) (A) (A) (A) (A) (A) (A) (A)
                 (A) (A) (A) (A) (A) (A) (A) (A) (A) (A) (A) (A)
                 (A) (A) (A) (A) (A)
       Virtual   (A) (A) (A) (A) (A) (A) (A) (A) (A) (A) (A) (A)
                 (A) (A) (A) (A) (A) (A) (A) (A) (A) (A) (A) (A)
                 (A) (A) (A) (A) (A) (A) (A) (A) (A) (A) (A) (A)
                 (A) (A) (A) (A) (A) (A) (A) (A) (A) (A) (A) (A)
                 (A) (A) (A) (A) (A) (A) (A) (A) (A) (A) (A) (A)
                 (A) (A) (A) (A) (A) (A) (A) (A) (A) (A) (A) (A)
                 (A) (A) (A) (A) (A) (A) (A) (A) (A) (A) (A) (A)
                 (A) (A) (A) (A) (A) (A) (A) (A) (A) (A) (A) (A)
                 (A) (A) (A) (A) (A) (A) (A) (A) (A) (A) (A) (A)
                 (A) (A) (A) (A) (A) (A) (A) (A) (A) (A) (A) (A)
                 (A) (A) (A) (A) (A) (A) (A) (A) (A) (A) (A) (A)
                 (A) (A) (A) (A) (A) (A) (A) (A) (A) (A) (A) (A)
                 (A) (A) (A) (A) (A) (A) (A) (A) (A) (A) (A) (A)
                 (A) (A) (A) (A) (A) (A) (A) (A) (A) (A) (A) (A)
                 (A) (A) (A) (A) (A) (A) (A) (A) (A) (A) (A) (A)
                 (A) (A) (A) (A) (A) (A) (A) (A) (A) (A) (A) (A)
                 (A) (A) (A) (A) (A) (A) (A) (A) (A) (A) (A) (A)
                 (A) (A) (A) (A) (A) (A) (A) (A) (A) (A)
 The electronic state is 1-A.
 Alpha  occ. eigenvalues -- -101.42630-101.42573 -19.16862 -14.34826 -14.34637
 Alpha  occ. eigenvalues --   -9.35918  -9.35865  -7.11717  -7.11660  -7.11407
 Alpha  occ. eigenvalues --   -7.11368  -7.11354  -7.11317  -3.89263  -2.16159
 Alpha  occ. eigenvalues --   -2.12890  -2.12293  -1.06076  -0.91581  -0.90563
 Alpha  occ. eigenvalues --   -0.72827  -0.72301  -0.58303  -0.52465  -0.52391
 Alpha  occ. eigenvalues --   -0.51574  -0.51376  -0.48126  -0.45664  -0.39856
 Alpha  occ. eigenvalues --   -0.35355  -0.34046  -0.32276  -0.29084  -0.27872
 Alpha  occ. eigenvalues --   -0.27051  -0.25843  -0.22163  -0.20687  -0.15303
 Alpha  occ. eigenvalues --   -0.14212
 Alpha virt. eigenvalues --   -0.00787   0.01469   0.05154   0.06675   0.08002
 Alpha virt. eigenvalues --    0.10784   0.11207   0.11707   0.13281   0.15077
 Alpha virt. eigenvalues --    0.15335   0.18515   0.21203   0.22036   0.27026
 Alpha virt. eigenvalues --    0.27890   0.28597   0.30282   0.31160   0.32717
 Alpha virt. eigenvalues --    0.33555   0.34104   0.35059   0.35700   0.36664
 Alpha virt. eigenvalues --    0.38455   0.39427   0.41388   0.42513   0.43344
 Alpha virt. eigenvalues --    0.44178   0.45959   0.47997   0.48975   0.49512
 Alpha virt. eigenvalues --    0.50262   0.50391   0.51368   0.51549   0.52687
 Alpha virt. eigenvalues --    0.53185   0.54608   0.57039   0.58869   0.60323
 Alpha virt. eigenvalues --    0.60947   0.63421   0.65089   0.65711   0.69316
 Alpha virt. eigenvalues --    0.71642   0.74414   0.76809   0.79084   0.80321
 Alpha virt. eigenvalues --    0.82310   0.92471   0.94143   0.96955   1.02346
 Alpha virt. eigenvalues --    1.09750   1.10801   1.14218   1.15170   1.17570
 Alpha virt. eigenvalues --    1.20461   1.22529   1.25895   1.26077   1.28362
 Alpha virt. eigenvalues --    1.33186   1.36226   1.42978   1.46279   1.46422
 Alpha virt. eigenvalues --    1.48264   1.49369   1.50784   1.51303   1.53377
 Alpha virt. eigenvalues --    1.56758   1.58341   1.58928   1.59872   1.60886
 Alpha virt. eigenvalues --    1.65457   1.72357   1.73952   1.76036   1.76893
 Alpha virt. eigenvalues --    1.78346   1.80435   1.80797   1.81406   1.81930
 Alpha virt. eigenvalues --    1.85338   1.87179   1.87810   1.92053   1.93030
 Alpha virt. eigenvalues --    1.93764   1.94796   1.97560   2.00294   2.01033
 Alpha virt. eigenvalues --    2.03431   2.11763   2.13262   2.14456   2.14868
 Alpha virt. eigenvalues --    2.15975   2.16212   2.16674   2.17390   2.17698
 Alpha virt. eigenvalues --    2.18431   2.18541   2.19208   2.19876   2.22413
 Alpha virt. eigenvalues --    2.23492   2.24473   2.25824   2.30411   2.30775
 Alpha virt. eigenvalues --    2.30928   2.33273   2.33843   2.34868   2.36515
 Alpha virt. eigenvalues --    2.39044   2.41076   2.42473   2.45805   2.48280
 Alpha virt. eigenvalues --    2.49164   2.50352   2.50716   2.52300   2.56400
 Alpha virt. eigenvalues --    2.59524   2.60012   2.61669   2.65573   2.66146
 Alpha virt. eigenvalues --    2.71100   2.72534   2.76061   2.84103   2.87727
 Alpha virt. eigenvalues --    2.98800   3.03280   3.08257   3.16100   3.20522
 Alpha virt. eigenvalues --    3.21009   3.21458   3.24010   3.28261   3.46291
 Alpha virt. eigenvalues --    3.68364   3.97010   4.12274   4.23463   4.31112
 Alpha virt. eigenvalues --    4.31396   4.33366   4.33557   4.41723   4.41943
 Alpha virt. eigenvalues --    4.61322   4.61746   4.69246   4.69377   4.84399
 Alpha virt. eigenvalues --    4.85025   4.88045   4.89214   5.01254   5.10523
 Alpha virt. eigenvalues --    5.14233   5.22935   5.35050   5.35471   5.35997
 Alpha virt. eigenvalues --    5.37028   5.37562   5.40107   5.48344   5.80608
 Alpha virt. eigenvalues --    5.81154   5.97206   6.24111   6.42918   6.45831
 Alpha virt. eigenvalues --    6.63821   6.94364   6.98094  10.77941  10.79364
 Alpha virt. eigenvalues --   10.79874  10.82739  10.94075  10.97408  24.82077
 Alpha virt. eigenvalues --   25.08076  31.37006  31.63671  31.70179  31.88567
 Alpha virt. eigenvalues --   32.42227  43.44815  52.13296 282.40991
          Condensed to atoms (all electrons):
               1          2          3          4          5          6
     1  Pt  17.824193   0.083972  -0.020282  -0.026026   0.004116  -0.133978
     2  N    0.083972   6.347764   0.360783   0.361797  -0.026468  -0.005461
     3  H   -0.020282   0.360783   0.401888  -0.020035   0.002063  -0.002641
     4  H   -0.026026   0.361797  -0.020035   0.405568   0.002182  -0.003295
     5  Cl   0.004116  -0.026468   0.002063   0.002182  17.835038  -0.027346
     6  O   -0.133978  -0.005461  -0.002641  -0.003295  -0.027346   8.194601
     7  H   -0.047621   0.001036  -0.000207   0.002044   0.001409   0.310327
     8  H   -0.036750   0.000235   0.000107  -0.000360  -0.001597   0.310901
     9  Cl  -0.003643  -0.029620   0.001833   0.001485  -0.033172  -0.027877
    10  N    0.080760  -0.015199   0.000496   0.000463  -0.032881   0.001416
    11  H   -0.030780   0.000600   0.000031  -0.000148   0.001795  -0.003011
    12  H   -0.029927   0.000540  -0.000165   0.000026   0.001611  -0.004292
    13  H   -0.035448   0.369194  -0.017264  -0.017093   0.000756   0.001561
    14  H   -0.029339   0.000602   0.000008  -0.000009   0.000335   0.001441
               7          8          9         10         11         12
     1  Pt  -0.047621  -0.036750  -0.003643   0.080760  -0.030780  -0.029927
     2  N    0.001036   0.000235  -0.029620  -0.015199   0.000600   0.000540
     3  H   -0.000207   0.000107   0.001833   0.000496   0.000031  -0.000165
     4  H    0.002044  -0.000360   0.001485   0.000463  -0.000148   0.000026
     5  Cl   0.001409  -0.001597  -0.033172  -0.032881   0.001795   0.001611
     6  O    0.310327   0.310901  -0.027877   0.001416  -0.003011  -0.004292
     7  H    0.343189  -0.018088  -0.001802   0.000033   0.002234  -0.000419
     8  H   -0.018088   0.334486   0.000874   0.003512   0.001806   0.003895
     9  Cl  -0.001802   0.000874  17.845018  -0.027452   0.000032   0.002005
    10  N    0.000033   0.003512  -0.027452   6.360317   0.361698   0.362151
    11  H    0.002234   0.001806   0.000032   0.361698   0.406290  -0.019002
    12  H   -0.000419   0.003895   0.002005   0.362151  -0.019002   0.404324
    13  H   -0.000027   0.000121  -0.000042   0.000762   0.000021   0.000005
    14  H   -0.000160  -0.000847   0.002894   0.366371  -0.018332  -0.017262
              13         14
     1  Pt  -0.035448  -0.029339
     2  N    0.369194   0.000602
     3  H   -0.017264   0.000008
     4  H   -0.017093  -0.000009
     5  Cl   0.000756   0.000335
     6  O    0.001561   0.001441
     7  H   -0.000027  -0.000160
     8  H    0.000121  -0.000847
     9  Cl  -0.000042   0.002894
    10  N    0.000762   0.366371
    11  H    0.000021  -0.018332
    12  H    0.000005  -0.017262
    13  H    0.401581  -0.000175
    14  H   -0.000175   0.398152
 Mulliken charges:
               1
     1  Pt   0.400754
     2  N   -0.449776
     3  H    0.293384
     4  H    0.293403
     5  Cl  -0.727842
     6  O   -0.612347
     7  H    0.408052
     8  H    0.401705
     9  Cl  -0.730532
    10  N   -0.462447
    11  H    0.296767
    12  H    0.296510
    13  H    0.296048
    14  H    0.296321
 Sum of Mulliken charges =   0.00000
 Mulliken charges with hydrogens summed into heavy atoms:
               1
     1  Pt   0.400754
     2  N    0.433059
     5  Cl  -0.727842
     6  O    0.197410
     9  Cl  -0.730532
    10  N    0.427151
 APT charges:
               1
     1  Pt   1.352709
     2  N   -0.364601
     3  H    0.237562
     4  H    0.238870
     5  Cl  -0.931521
     6  O   -0.907275
     7  H    0.359069
     8  H    0.361690
     9  Cl  -0.950097
    10  N   -0.385024
    11  H    0.236814
    12  H    0.237039
    13  H    0.254680
    14  H    0.260086
 Sum of APT charges =   0.00000
 APT charges with hydrogens summed into heavy atoms:
               1
     1  Pt   1.352709
     2  N    0.366511
     5  Cl  -0.931521
     6  O   -0.186516
     9  Cl  -0.950097
    10  N    0.348915
 Electronic spatial extent (au):  <R**2>=           1254.0825
 Charge=              0.0000 electrons
 Dipole moment (field-independent basis, Debye):
    X=             -1.2568    Y=              6.2232    Z=              9.7282  Tot=             11.6166
 Quadrupole moment (field-independent basis, Debye-Ang):
   XX=            -94.0764   YY=            -44.1719   ZZ=            -65.3524
   XY=             -0.1209   XZ=             -3.4556   YZ=             -5.6550
 Traceless Quadrupole moment (field-independent basis, Debye-Ang):
   XX=            -26.2095   YY=             23.6950   ZZ=              2.5145
   XY=             -0.1209   XZ=             -3.4556   YZ=             -5.6550
 Octapole moment (field-independent basis, Debye-Ang**2):
  XXX=             -4.7303  YYY=             29.3914  ZZZ=             49.5427  XYY=              0.8985
  XXY=             19.8069  XXZ=             42.9263  XZZ=             -6.4320  YZZ=             17.1915
  YYZ=             25.0132  XYZ=             -0.8162
 Hexadecapole moment (field-independent basis, Debye-Ang**3):
 XXXX=           -895.0837 YYYY=           -306.7027 ZZZZ=           -411.7005 XXXY=             -1.2400
 XXXZ=             -8.3629 YYYX=              3.5092 YYYZ=            -12.6062 ZZZX=            -21.1795
 ZZZY=             -9.6722 XXYY=           -190.1342 XXZZ=           -212.0885 YYZZ=           -103.7760
 XXYZ=            -12.6767 YYXZ=              0.2269 ZZXY=             -3.9995
 N-N= 5.635327548533D+02 E-N=-4.013135065113D+03  KE= 1.149387344370D+03
  Exact polarizability: 131.283   0.721 114.503  -0.210   0.632 110.949
 Approx polarizability: 145.628   1.021 123.875  -0.117   0.205 120.563
 No NMR shielding tensors so no spin-rotation constants.
 Leave Link  601 at Wed Dec 23 10:09:32 2020, MaxMem=  4026531840 cpu:         3.1
 (Enter /home/scicons/Gaussian09D/Gaussian09.D01/l701.exe)
 Compute integral second derivatives.
 ... and contract with generalized density number  0.
 R6Disp: Adding Grimme-D3(BJ) dispersion energy 2nd derivatives to the Hessian.
   1 Symmetry operations used in ECPInt.
 ECPInt:  NShTT=    5565 NPrTT=   17197 LenC2=    5427 LenP2D=   12991.
 LDataN:  DoStor=T MaxTD1=10 Len=  848
 D2PCM: PCM CHGder 2nd derivatives, FixD1E=F FixD2E=F DoIter=F DoCFld=F I1PDM=0
 GePol: Maximum number of non-zero 2nd derivatives   =     381
 Leave Link  701 at Wed Dec 23 10:09:38 2020, MaxMem=  4026531840 cpu:       143.1
 (Enter /home/scicons/Gaussian09D/Gaussian09.D01/l702.exe)
 L702 exits ... SP integral derivatives will be done elsewhere.
 Leave Link  702 at Wed Dec 23 10:09:38 2020, MaxMem=  4026531840 cpu:         0.3
 (Enter /home/scicons/Gaussian09D/Gaussian09.D01/l703.exe)
 Compute integral second derivatives, UseDBF=F ICtDFT=           0.
 Integral derivatives from FoFJK, PRISM(SPDF).
 Calling FoFJK, ICntrl=    100127 FMM=F ISym2X=0 I1Cent= 0 IOpClX= 0 NMat=1 NMatS=1 NMatT=0.
 FoFJK:  IHMeth= 1 ICntrl=  100127 DoSepK=F KAlg= 0 I1Cent=   0 FoldK=F
 IRaf=         0 NMat=   1 IRICut=       1 DoRegI=T DoRafI=F ISym2E= 0.
 FoFCou: FMM=F IPFlag=           0 FMFlag=      100000 FMFlg1=         800
         NFxFlg=           0 DoJE=F BraDBF=F KetDBF=F FulRan=T
         wScrn=  0.000000 ICntrl=  100127 IOpCl=  0 I1Cent=           0 NGrid=           0
         NMat0=    1 NMatS0=      1 NMatT0=    0 NMatD0=    1 NMtDS0=    0 NMtDT0=    0
 Symmetry not used in FoFCou.
 Defaulting to unpruned grid for atomic number  78.
 Defaulting to unpruned grid for atomic number  78.
 Defaulting to unpruned grid for atomic number  78.
 Defaulting to unpruned grid for atomic number  78.
 Defaulting to unpruned grid for atomic number  78.
 Defaulting to unpruned grid for atomic number  78.
 Defaulting to unpruned grid for atomic number  78.
 Defaulting to unpruned grid for atomic number  78.
 Defaulting to unpruned grid for atomic number  78.
 Defaulting to unpruned grid for atomic number  78.
 Defaulting to unpruned grid for atomic number  78.
 Defaulting to unpruned grid for atomic number  78.
 Defaulting to unpruned grid for atomic number  78.
 Defaulting to unpruned grid for atomic number  78.
 Defaulting to unpruned grid for atomic number  78.
 Defaulting to unpruned grid for atomic number  78.
 Defaulting to unpruned grid for atomic number  78.
 Defaulting to unpruned grid for atomic number  78.
 Defaulting to unpruned grid for atomic number  78.
 Defaulting to unpruned grid for atomic number  78.
 Defaulting to unpruned grid for atomic number  78.
 Defaulting to unpruned grid for atomic number  78.
 Defaulting to unpruned grid for atomic number  78.
 Defaulting to unpruned grid for atomic number  78.
 Leave Link  703 at Wed Dec 23 10:10:00 2020, MaxMem=  4026531840 cpu:       524.3
 (Enter /home/scicons/Gaussian09D/Gaussian09.D01/l716.exe)
 Dipole        =-4.94478068D-01 2.44840993D+00 3.82735837D+00
 Polarizability= 1.31283141D+02 7.21203637D-01 1.14503133D+02
                -2.10188366D-01 6.31672933D-01 1.10949459D+02
 ***** Axes restored to original set *****
 -------------------------------------------------------------------
 Center     Atomic                   Forces (Hartrees/Bohr)
 Number     Number              X              Y              Z
 -------------------------------------------------------------------
      1       78          -0.062946198   -0.003401530    0.002050734
      2        7           0.002987597   -0.000245900    0.007573390
      3        1           0.005204823   -0.010514650    0.009401604
      4        1           0.005057158    0.010552994    0.009539090
      5       17          -0.032592307   -0.055599052    0.000069239
      6        8           0.102792303   -0.002767351    0.007435378
      7        1           0.010448532    0.003070095   -0.005158307
      8        1           0.012892305    0.001358078   -0.003977333
      9       17          -0.032998722    0.057002603    0.000184181
     10        7           0.001357110    0.000743733   -0.007251721
     11        1           0.005234743    0.010802085   -0.009670104
     12        1           0.004727801   -0.011074178   -0.010251632
     13        1          -0.011119461    0.000037265    0.008101946
     14        1          -0.011045681    0.000035807   -0.008046464
 -------------------------------------------------------------------
 Cartesian Forces:  Max     0.102792303 RMS     0.024332550
 FormGI is forming the generalized inverse of G from B-inverse, IUseBI=4.
 Leave Link  716 at Wed Dec 23 10:10:00 2020, MaxMem=  4026531840 cpu:         0.5
 (Enter /home/scicons/Gaussian09D/Gaussian09.D01/l103.exe)

 GradGradGradGradGradGradGradGradGradGradGradGradGradGradGradGradGradGrad
 Berny optimization.
 Red2BG is reusing G-inverse.
 Internal  Forces:  Max     0.126140844 RMS     0.019741322
 Search for a saddle point.
 Step number   1 out of a maximum of   84
 All quantities printed in internal units (Hartrees-Bohrs-Radians)
 Swapping is turned off.
 Second derivative matrix not updated -- analytic derivatives used.
 ITU=  0
     Eigenvalues ---   -0.02670  -0.02328  -0.00126  -0.00040   0.00038
     Eigenvalues ---    0.01682   0.02334   0.02411   0.02443   0.02547
     Eigenvalues ---    0.05287   0.05906   0.06022   0.07938   0.08387
     Eigenvalues ---    0.08452   0.08917   0.09774   0.09922   0.10147
     Eigenvalues ---    0.11146   0.12611   0.14483   0.16169   0.16584
     Eigenvalues ---    0.19619   0.26848   0.29860   0.48751   0.48788
     Eigenvalues ---    0.48798   0.48938   0.49222   0.49378   0.52920
     Eigenvalues ---    0.53275
 Eigenvectors required to have negative eigenvalues:
                          A7        A4        D32       D6        D4
   1                    0.40017  -0.39133  -0.26584   0.26535   0.26250
                          D5        D31       D30       R2        R4
   1                    0.26108  -0.26064  -0.25971   0.16314  -0.14988
 Eigenvalue     2 is  -2.33D-02 should be greater than     0.000000 Eigenvector:
                          A5        A4        D2        D27       D29
   1                   -0.46229   0.23909   0.23732  -0.23640  -0.23628
                          D3        D1        D34       D28       D7
   1                    0.23463   0.23446   0.23139  -0.23090  -0.22783
 Eigenvalue     3 is  -1.26D-03 should be greater than     0.000000 Eigenvector:
                          D9        D6        D7        D4        D8
   1                    0.26190   0.26082   0.26013   0.25905   0.25897
                          D3        D5        D1        D2        D33
   1                    0.25854   0.25789   0.25676   0.25560  -0.20205
 Eigenvalue     4 is  -4.03D-04 should be greater than     0.000000 Eigenvector:
                          D16       D18       D10       D17       D13
   1                   -0.26654  -0.26635  -0.26588  -0.26586  -0.26576
                          D12       D15       D11       D14       D32
   1                   -0.26569  -0.26557  -0.26521  -0.26508  -0.18452
 RFO step:  Lambda0=2.749003811D-05 Lambda=-7.87124048D-02.
 Linear search not attempted -- option 19 set.
 Maximum step size (   0.300) exceeded in Quadratic search.
    -- Step size scaled by   0.456
 Iteration  1 RMS(Cart)=  0.07009184 RMS(Int)=  0.00249005
 Iteration  2 RMS(Cart)=  0.00253116 RMS(Int)=  0.00009177
 Iteration  3 RMS(Cart)=  0.00000323 RMS(Int)=  0.00009174
 Iteration  4 RMS(Cart)=  0.00000000 RMS(Int)=  0.00009174
 ITry= 1 IFail=0 DXMaxC= 2.41D-01 DCOld= 1.00D+10 DXMaxT= 3.00D-01 DXLimC= 3.00D+00 Rises=F
 Variable       Old X    -DE/DX   Delta X   Delta X   Delta X     New X
                                 (Linear)    (Quad)   (Total)
    R1        3.76056   0.03460   0.00000   0.04054   0.04054   3.80110
    R2        4.30858   0.06445   0.00000   0.06523   0.06523   4.37381
    R3        3.68497   0.12614   0.00000   0.19033   0.19033   3.87529
    R4        4.30858   0.06587   0.00000   0.06922   0.06922   4.37779
    R5        3.76056   0.03523   0.00000   0.04191   0.04191   3.80246
    R6        1.88973   0.01415   0.00000   0.01177   0.01177   1.90149
    R7        1.88973   0.01417   0.00000   0.01195   0.01195   1.90168
    R8        1.88973   0.01321   0.00000   0.01054   0.01054   1.90027
    R9        1.81414   0.00630   0.00000   0.00378   0.00378   1.81792
   R10        1.81414   0.00693   0.00000   0.00494   0.00494   1.81908
   R11        1.88973   0.01451   0.00000   0.01126   0.01126   1.90099
   R12        1.88973   0.01472   0.00000   0.01194   0.01194   1.90166
   R13        1.88973   0.01307   0.00000   0.01076   0.01076   1.90048
    A1        1.57080   0.00081   0.00000  -0.00185  -0.00211   1.56869
    A2        1.57080  -0.00323   0.00000  -0.00546  -0.00560   1.56519
    A3        1.57080   0.00102   0.00000   0.00246   0.00229   1.57308
    A4        2.09440   0.00039   0.00000  -0.07524  -0.07526   2.01913
    A5        2.09440  -0.00024   0.00000   0.15778   0.15778   2.25217
    A6        1.57080  -0.00011   0.00000   0.00324   0.00357   1.57437
    A7        2.09440  -0.00015   0.00000  -0.08254  -0.08253   2.01187
    A8        1.57080   0.00240   0.00000   0.00738   0.00767   1.57846
    A9        1.57080  -0.00088   0.00000  -0.00577  -0.00554   1.56526
   A10        1.91063   0.00498   0.00000   0.00748   0.00744   1.91808
   A11        1.91063   0.00519   0.00000   0.00821   0.00817   1.91881
   A12        1.91063   0.00304   0.00000   0.00990   0.00986   1.92049
   A13        1.91063  -0.00453   0.00000  -0.00740  -0.00744   1.90320
   A14        1.91063  -0.00431   0.00000  -0.00956  -0.00959   1.90104
   A15        1.91063  -0.00438   0.00000  -0.00864  -0.00868   1.90196
   A16        1.91063   0.01030   0.00000   0.00916   0.00913   1.91976
   A17        1.91063   0.01462   0.00000   0.01720   0.01717   1.92780
   A18        1.91063  -0.01152   0.00000  -0.01844  -0.01849   1.89214
   A19        1.91063   0.00512   0.00000   0.00510   0.00508   1.91571
   A20        1.91063   0.00591   0.00000   0.01019   0.01014   1.92078
   A21        1.91063   0.00288   0.00000   0.01009   0.01005   1.92068
   A22        1.91063  -0.00481   0.00000  -0.00758  -0.00760   1.90303
   A23        1.91063  -0.00433   0.00000  -0.00837  -0.00838   1.90225
   A24        1.91063  -0.00477   0.00000  -0.00944  -0.00951   1.90113
   A25        3.14159   0.00069   0.00000   0.00139   0.00146   3.14306
   A26        3.14159   0.00056   0.00000  -0.00302  -0.00300   3.13860
    D1        1.04720  -0.00014   0.00000  -0.02921  -0.02921   1.01799
    D2       -3.14159   0.00055   0.00000  -0.02866  -0.02867   3.11292
    D3       -1.04720   0.00022   0.00000  -0.02815  -0.02814  -1.07534
    D4       -1.04720  -0.00053   0.00000   0.04603   0.04603  -1.00117
    D5        1.04720   0.00016   0.00000   0.04658   0.04657   1.09377
    D6       -3.14159  -0.00016   0.00000   0.04709   0.04710  -3.09449
    D7       -3.14159  -0.00038   0.00000   0.12856   0.12857  -3.01303
    D8       -1.04720   0.00030   0.00000   0.12911   0.12910  -0.91809
    D9        1.04720  -0.00002   0.00000   0.12963   0.12963   1.17683
   D10       -2.08283  -0.00050   0.00000  -0.01872  -0.01873  -2.10156
   D11        0.01156   0.00012   0.00000  -0.01803  -0.01805  -0.00649
   D12        2.10596  -0.00013   0.00000  -0.01676  -0.01675   2.08921
   D13        0.01156  -0.00007   0.00000  -0.01758  -0.01758  -0.00602
   D14        2.10596   0.00054   0.00000  -0.01690  -0.01690   2.08906
   D15       -2.08283   0.00030   0.00000  -0.01562  -0.01560  -2.09843
   D16        2.10596  -0.00035   0.00000  -0.01808  -0.01809   2.08786
   D17       -2.08283   0.00027   0.00000  -0.01740  -0.01741  -2.10025
   D18        0.01156   0.00002   0.00000  -0.01612  -0.01611  -0.00455
   D19       -1.55518   0.00015   0.00000  -0.00916  -0.00916  -1.56434
   D20        2.63361  -0.00100   0.00000  -0.00272  -0.00274   2.63087
   D21       -3.12598   0.00109   0.00000  -0.00387  -0.00412  -3.13010
   D22        1.06281  -0.00007   0.00000   0.00257   0.00229   1.06511
   D23        0.01562  -0.00054   0.00000  -0.00947  -0.00927   0.00634
   D24       -2.07878  -0.00169   0.00000  -0.00303  -0.00286  -2.08164
   D25        1.58641  -0.00017   0.00000  -0.01187  -0.01178   1.57464
   D26       -0.50798  -0.00132   0.00000  -0.00543  -0.00536  -0.51334
   D27       -3.13003  -0.00061   0.00000   0.01108   0.01108  -3.11895
   D28       -1.03564   0.00025   0.00000   0.01117   0.01116  -1.02448
   D29        1.05876  -0.00021   0.00000   0.01203   0.01202   1.07078
   D30       -1.03564  -0.00023   0.00000  -0.06415  -0.06414  -1.09977
   D31        1.05876   0.00064   0.00000  -0.06407  -0.06406   0.99470
   D32       -3.13003   0.00018   0.00000  -0.06321  -0.06320   3.08996
   D33        1.05876  -0.00037   0.00000  -0.14669  -0.14669   0.91207
   D34       -3.13003   0.00049   0.00000  -0.14661  -0.14661   3.00654
   D35       -1.03564   0.00003   0.00000  -0.14575  -0.14575  -1.18139
         Item               Value     Threshold  Converged?
 Maximum Force            0.126141     0.000450     NO 
 RMS     Force            0.019741     0.000300     NO 
 Maximum Displacement     0.240948     0.001800     NO 
 RMS     Displacement     0.070176     0.001200     NO 
 Predicted change in Energy=-3.261439D-02
 Lowest energy point so far.  Saving SCF results.
 GradGradGradGradGradGradGradGradGradGradGradGradGradGradGradGradGradGrad

 Leave Link  103 at Wed Dec 23 10:10:00 2020, MaxMem=  4026531840 cpu:         1.3
 (Enter /home/scicons/Gaussian09D/Gaussian09.D01/l202.exe)
                          Input orientation:                          
 ---------------------------------------------------------------------
 Center     Atomic      Atomic             Coordinates (Angstroms)
 Number     Number       Type             X           Y           Z
 ---------------------------------------------------------------------
      1         78           0       -2.432390   -0.221528   -0.001735
      2          7           0       -2.429735   -0.220403    2.009716
      3          1           0       -1.924683   -1.020581    2.351959
      4          1           0       -1.988967    0.617067    2.351852
      5         17           0       -3.450507   -2.300080    0.005653
      6          8           0       -0.381744   -0.236112    0.007056
      7          1           0       -0.046415    0.665527    0.013792
      8          1           0       -0.045116   -0.679831   -0.778067
      9         17           0       -3.406439    1.880367   -0.006920
     10          7           0       -2.439165   -0.217354   -2.013896
     11          1           0       -2.004716    0.623899   -2.353746
     12          1           0       -1.931012   -1.013007   -2.362305
     13          1           0       -3.373242   -0.257974    2.355509
     14          1           0       -3.384145   -0.258704   -2.355542
 ---------------------------------------------------------------------
                    Distance matrix (angstroms):
                    1          2          3          4          5
     1  Pt   0.000000
     2  N    2.011453   0.000000
     3  H    2.536952   1.006227   0.000000
     4  H    2.537565   1.006325   1.638909   0.000000
     5  Cl   2.314518   3.063217   3.077403   4.018768   0.000000
     6  O    2.050717   2.864464   2.914553   2.968020   3.698279
     7  H    2.545582   3.232460   3.440621   3.040129   4.514724
     8  H    2.551825   3.697190   3.666871   3.906008   3.851768
     9  Cl   2.316627   3.071483   4.021866   3.028029   4.180699
    10  N    2.012177   4.023624   4.468842   4.467515   3.072318
    11  H    2.535667   4.464671   4.985416   4.705629   4.025758
    12  H    2.539706   4.471187   4.714274   4.988364   3.093970
    13  H    2.538332   1.005579   1.637042   1.637658   3.114160
    14  H    2.539218   4.468539   4.987088   4.987289   3.121997
                    6          7          8          9         10
     6  O    0.000000
     7  H    0.962000   0.000000
     8  H    0.962613   1.561099   0.000000
     9  Cl   3.691674   3.572958   4.295087   0.000000
    10  N    2.884022   3.258259   2.733611   3.060067   0.000000
    11  H    2.991161   3.072769   2.832403   3.008510   1.005958
    12  H    2.935586   3.466268   2.485441   4.012024   1.006316
    13  H    3.803257   4.171842   4.590608   3.186640   4.468316
    14  H    3.820575   4.196235   3.716839   3.176815   1.005693
                   11         12         13         14
    11  H    0.000000
    12  H    1.638587   0.000000
    13  H    4.982734   4.990778   0.000000
    14  H    1.637625   1.637258   4.711064   0.000000
 Stoichiometry    Cl2H8N2OPt
 Framework group  C1[X(Cl2H8N2OPt)]
 Deg. of freedom    36
 Full point group                 C1      NOp   1
 RotChk:  IX=0 Diff= 3.86D-01
 Largest Abelian subgroup         C1      NOp   1
 Largest concise Abelian subgroup C1      NOp   1
                         Standard orientation:                         
 ---------------------------------------------------------------------
 Center     Atomic      Atomic             Coordinates (Angstroms)
 Number     Number       Type             X           Y           Z
 ---------------------------------------------------------------------
      1         78           0        0.002881    0.008623    0.089467
      2          7           0        0.007768   -1.980531    0.388104
      3          1           0        0.794437   -2.239073    0.959768
      4          1           0       -0.840744   -2.260107    0.851303
      5         17           0        2.109294   -0.133550   -0.859113
      6          8           0       -0.040266    0.301551    2.118696
      7          1           0       -0.950966    0.337760    2.426523
      8          1           0        0.391418    1.130785    2.348140
      9         17           0       -2.070755   -0.144469   -0.931982
     10          7           0       -0.007189    1.997837   -0.213493
     11          1           0       -0.861368    2.391860    0.142983
     12          1           0        0.772779    2.422845    0.259465
     13          1           0        0.072941   -2.461018   -0.492847
     14          1           0        0.059723    2.197109   -1.196972
 ---------------------------------------------------------------------
 Rotational constants (GHZ):      1.7128347      1.1094204      1.1029554
 Leave Link  202 at Wed Dec 23 10:10:00 2020, MaxMem=  4026531840 cpu:         0.1
 (Enter /home/scicons/Gaussian09D/Gaussian09.D01/l301.exe)
 Standard basis: def2TZVP (5D, 7F)
 Ernie: Thresh=  0.10000D-02 Tol=  0.10000D-05 Strict=F.
 There are   286 symmetry adapted cartesian basis functions of A   symmetry.
 There are   255 symmetry adapted basis functions of A   symmetry.
   255 basis functions,   430 primitive gaussians,   286 cartesian basis functions
    41 alpha electrons       41 beta electrons
       nuclear repulsion energy       552.6981595562 Hartrees.
 IExCor=  402 DFT=T Ex+Corr=B3LYP ExCW=0 ScaHFX=  0.200000
 ScaDFX=  0.800000  0.720000  1.000000  0.810000 ScalE2=  1.000000  1.000000
 IRadAn=      0 IRanWt=     -1 IRanGd=            0 ICorTp=0 IEmpDi=141
 NAtoms=   14 NActive=   14 NUniq=   14 SFac= 1.00D+00 NAtFMM=   60 NAOKFM=F Big=F
 Integral buffers will be    131072 words long.
 Raffenetti 2 integral format.
 Two-electron integral symmetry is turned on.
 R6Disp:  Grimme-D3(BJ) Dispersion energy=       -0.0295063749 Hartrees.
 Nuclear repulsion after empirical dispersion term =      552.6686531813 Hartrees.
 Force inversion solution in PCM.
 ------------------------------------------------------------------------------
 Polarizable Continuum Model (PCM)
 =================================
 Model                : PCM (using non-symmetric T matrix).
 Atomic radii         : SMD-Coulomb.
 Polarization charges : Total charges.
 Charge compensation  : None.
 Solution method      : Matrix inversion.
 Cavity type          : VdW (van der Waals Surface) (Alpha=1.000).
 Cavity algorithm     : GePol (No added spheres)
                        Default sphere list used, NSphG=   14.
                        Lebedev-Laikov grids with approx.  5.0 points / Ang**2.
                        Smoothing algorithm: Karplus/York (Gamma=1.0000).
                        Polarization charges: spherical gaussians, with
                                              point-specific exponents (IZeta= 3).
                        Self-potential: point-specific (ISelfS= 7).
                        Self-field    : sphere-specific E.n sum rule (ISelfD= 2).
 1st derivatives      : Analytical E(r).r(x)/FMM algorithm (CHGder, D1EAlg=3).
                        Cavity 1st derivative terms included.
 2nd derivatives      : Analytical E(r).r(xy)/FMM algorithm (CHGder, D2EAlg=3).
                        Cavity 2nd derivative terms included.
 Solvent              : Water, Eps=  78.355300 Eps(inf)=   1.777849
 ------------------------------------------------------------------------------
 Spheres list:
 ISph  on   Nord     Re0    Alpha      Xe            Ye            Ze
    1  Pt      1    1.7500  1.000      0.002881      0.008623      0.089467
[...]
                     22                     23                     24
                      A                      A                      A
 Frequencies --   1287.7899              1291.3929              1580.6164
 Red. masses --      1.1753                 1.1831                 1.0759
 Frc consts  --      1.1484                 1.1625                 1.5837
 IR Inten    --     86.4752               259.3715                91.6318
  Atom  AN      X      Y      Z        X      Y      Z        X      Y      Z
     1  78     0.00   0.00   0.00     0.00   0.00   0.00     0.00   0.00   0.00
     2   7    -0.01  -0.11   0.01     0.00   0.03   0.00     0.00   0.00   0.00
     3   1    -0.03   0.52   0.17     0.01  -0.14  -0.05     0.00  -0.01  -0.01
     4   1    -0.08   0.51  -0.20     0.02  -0.14   0.05    -0.02   0.01   0.01
     5  17     0.00   0.00   0.00     0.00   0.00   0.00     0.00   0.00   0.00
     6   8     0.00   0.00   0.00     0.00   0.00   0.00     0.04  -0.05   0.02
     7   1     0.00   0.00   0.00     0.00   0.00   0.00    -0.14   0.73   0.11
     8   1     0.00   0.00   0.00     0.00   0.00   0.00    -0.46   0.15  -0.45
     9  17     0.00   0.00   0.00     0.00   0.00   0.00     0.00   0.00   0.00
    10   7     0.00   0.03   0.00     0.00   0.11  -0.01     0.00   0.00   0.00
    11   1    -0.04  -0.15  -0.03    -0.17  -0.54  -0.10     0.00   0.00   0.00
    12   1    -0.01  -0.13   0.07    -0.03  -0.48   0.25     0.00   0.00   0.00
    13   1     0.25   0.50  -0.05    -0.07  -0.13   0.01     0.01   0.01   0.03
    14   1     0.05  -0.14   0.00     0.20  -0.51  -0.02     0.00   0.00   0.00
                     25                     26                     27
                      A                      A                      A
 Frequencies --   1605.1289              1606.2256              1612.2458
 Red. masses --      1.0556                 1.0563                 1.0560
 Frc consts  --      1.6024                 1.6056                 1.6173
 IR Inten    --     35.0514                73.8830                55.6890
  Atom  AN      X      Y      Z        X      Y      Z        X      Y      Z
     1  78     0.00   0.00   0.00     0.00   0.00   0.00     0.00   0.00   0.00
     2   7    -0.05   0.00  -0.02     0.02   0.00   0.02    -0.03   0.00   0.04
     3   1     0.62  -0.06   0.25    -0.28   0.06  -0.09     0.07   0.24   0.14
     4   1     0.19   0.20  -0.29    -0.01  -0.11   0.08     0.49  -0.13  -0.32
     5  17     0.00   0.00   0.00     0.00   0.00   0.00     0.00   0.00   0.00
     6   8     0.00   0.00   0.00     0.00   0.00   0.00     0.00   0.00   0.00
     7   1     0.00   0.00   0.00     0.00   0.00   0.00    -0.01   0.02   0.00
     8   1     0.00   0.00   0.00    -0.01   0.00   0.00    -0.02   0.00  -0.01
     9  17     0.00   0.00   0.00     0.00   0.00   0.00     0.00   0.00   0.00
    10   7     0.02   0.00  -0.01     0.04   0.00  -0.04    -0.02   0.00  -0.02
    11   1    -0.18   0.06   0.23    -0.44   0.07   0.51    -0.05  -0.15  -0.05
    12   1    -0.23   0.07  -0.09    -0.36   0.19  -0.20     0.35   0.07   0.03
    13   1    -0.08  -0.20   0.40     0.01   0.07  -0.26    -0.16  -0.17  -0.46
    14   1     0.07  -0.12   0.04     0.20  -0.22   0.24     0.06   0.12   0.32
                     28                     29                     30
                      A                      A                      A
 Frequencies --   1613.1459              3396.9053              3432.7497
 Red. masses --      1.0542                 1.0625                 1.0278
 Frc consts  --      1.6162                 7.2238                 7.1356
 IR Inten    --     75.6523               553.7927                40.4472
  Atom  AN      X      Y      Z        X      Y      Z        X      Y      Z
     1  78     0.00   0.00   0.00     0.00   0.00   0.00     0.00   0.00   0.00
     2   7     0.01   0.00  -0.03     0.00   0.00   0.00     0.00   0.02   0.00
     3   1     0.03  -0.16  -0.06     0.00   0.00   0.00    -0.12  -0.08   0.28
     4   1    -0.28   0.11   0.16     0.00   0.00   0.00    -0.19  -0.10  -0.23
     5  17     0.00   0.00   0.00     0.00   0.00   0.00     0.00   0.00   0.00
     6   8     0.00   0.00   0.00    -0.04   0.00  -0.05     0.00   0.00   0.00
     7   1     0.01  -0.02   0.00     0.65   0.04   0.75     0.00   0.00   0.00
     8   1     0.01   0.00   0.01    -0.01  -0.09  -0.06     0.00   0.00   0.00
     9  17     0.00   0.00   0.00     0.00   0.00   0.00     0.00   0.00   0.00
    10   7    -0.03   0.00  -0.04     0.00   0.00   0.00     0.00   0.03   0.00
    11   1    -0.19  -0.23   0.04     0.00   0.00   0.00     0.34  -0.13   0.31
    12   1     0.47   0.17  -0.01     0.00   0.00   0.00     0.09  -0.20  -0.44
    13   1     0.09   0.08   0.34     0.00   0.00   0.00     0.27  -0.12  -0.03
    14   1     0.15   0.14   0.58     0.00   0.00   0.00    -0.45  -0.14   0.16
                     31                     32                     33
                      A                      A                      A
 Frequencies --   3435.3831              3525.3969              3525.5514
 Red. masses --      1.0283                 1.0915                 1.0914
 Frc consts  --      7.1499                 7.9925                 7.9929
 IR Inten    --      2.5953                68.5385                89.0944
  Atom  AN      X      Y      Z        X      Y      Z        X      Y      Z
     1  78     0.00   0.00   0.00     0.00   0.00   0.00     0.00   0.00   0.00
     2   7     0.01   0.03   0.00     0.00   0.00  -0.01    -0.02   0.00  -0.08
     3   1    -0.19  -0.12   0.44    -0.03  -0.02   0.06    -0.26  -0.18   0.58
     4   1    -0.30  -0.16  -0.37     0.03   0.01   0.03     0.44   0.26   0.52
     5  17     0.00   0.00   0.00     0.00   0.00   0.00     0.00   0.00   0.00
     6   8     0.00   0.00   0.00     0.00   0.00   0.00     0.00   0.00   0.00
     7   1     0.00   0.00   0.00     0.00   0.00   0.00     0.00   0.00   0.00
     8   1     0.00   0.00   0.00     0.00   0.00   0.00     0.00   0.00   0.00
     9  17     0.00   0.00   0.00     0.00   0.00   0.00     0.00   0.00   0.00
    10   7     0.00  -0.02   0.00    -0.03   0.01   0.07     0.01   0.00   0.00
    11   1    -0.21   0.08  -0.20    -0.16   0.07  -0.13    -0.02   0.01  -0.02
    12   1    -0.06   0.12   0.28     0.14  -0.34  -0.69    -0.01   0.02   0.04
    13   1     0.42  -0.18  -0.05    -0.02   0.01   0.00     0.08  -0.04  -0.03
    14   1     0.28   0.09  -0.10     0.51   0.18  -0.17    -0.07  -0.02   0.02
                     34                     35                     36
                      A                      A                      A
 Frequencies --   3527.9570              3533.1478              3777.6505
 Red. masses --      1.0918                 1.0920                 1.0674
 Frc consts  --      8.0065                 8.0315                 8.9746
 IR Inten    --     80.5537                85.1251               163.4072
  Atom  AN      X      Y      Z        X      Y      Z        X      Y      Z
     1  78     0.00   0.00   0.00     0.00   0.00   0.00     0.00   0.00   0.00
     2   7     0.00   0.00   0.01    -0.08   0.01   0.02     0.00   0.00   0.00
     3   1     0.03   0.02  -0.06     0.16   0.13  -0.40     0.00   0.00   0.00
     4   1    -0.02  -0.01  -0.02     0.17   0.11   0.24     0.00   0.00   0.00
     5  17     0.00   0.00   0.00     0.00   0.00   0.00     0.00   0.00   0.00
     6   8     0.00   0.00   0.00     0.00   0.00   0.00     0.00  -0.06  -0.03
     7   1     0.00   0.00   0.00     0.00   0.00   0.00     0.06  -0.02   0.06
     8   1     0.00   0.00   0.00     0.00   0.00   0.00     0.00   0.93   0.35
     9  17     0.00   0.00   0.00     0.00   0.00   0.00     0.00   0.00   0.00
    10   7     0.07   0.00   0.04    -0.01   0.00   0.00     0.00   0.00   0.00
    11   1    -0.55   0.24  -0.51     0.03  -0.01   0.03     0.00   0.00   0.00
    12   1     0.05  -0.09  -0.17     0.00  -0.01  -0.01     0.00   0.00   0.00
    13   1     0.04  -0.02   0.00     0.75  -0.35  -0.08     0.00   0.00   0.00
    14   1    -0.50  -0.18   0.20     0.05   0.02  -0.02     0.00   0.00   0.00

 -------------------
 - Thermochemistry -
 -------------------
 Temperature   298.150 Kelvin.  Pressure   1.00000 Atm.
 Atom     1 has atomic number 78 and mass 194.96480
 Atom     2 has atomic number  7 and mass  14.00307
 Atom     3 has atomic number  1 and mass   1.00783
 Atom     4 has atomic number  1 and mass   1.00783
 Atom     5 has atomic number 17 and mass  34.96885
 Atom     6 has atomic number  8 and mass  15.99491
 Atom     7 has atomic number  1 and mass   1.00783
 Atom     8 has atomic number  1 and mass   1.00783
 Atom     9 has atomic number 17 and mass  34.96885
 Atom    10 has atomic number  7 and mass  14.00307
 Atom    11 has atomic number  1 and mass   1.00783
 Atom    12 has atomic number  1 and mass   1.00783
 Atom    13 has atomic number  1 and mass   1.00783
 Atom    14 has atomic number  1 and mass   1.00783
 Molecular mass:   316.96617 amu.
 Principal axes and moments of inertia in atomic units:
                           1         2         3
     Eigenvalues --   954.979232047.494862200.79267
           X            0.99973  -0.00373  -0.02278
           Y            0.00352   0.99995  -0.00903
           Z            0.02281   0.00895   0.99970
 This molecule is an asymmetric top.
 Rotational symmetry number  1.
 Warning -- assumption of classical behavior for rotation
           may cause significant error
 Rotational temperatures (Kelvin)      0.09070     0.04230     0.03936
 Rotational constants (GHZ):           1.88982     0.88144     0.82004
    3 imaginary frequencies ignored.
 Zero-point vibrational energy     274954.3 (Joules/Mol)
                                   65.71565 (Kcal/Mol)
 Warning -- explicit consideration of  13 degrees of freedom as
           vibrations may cause significant error
 Vibrational temperatures:     69.78   126.64   155.83   216.04   238.47
          (Kelvin)            260.79   304.26   348.96   444.64   454.94
                              686.58   757.68   854.75  1002.05  1042.84
                             1084.60  1156.76  1178.72  1852.84  1858.02
                             2274.15  2309.42  2311.00  2319.66  2320.95
                             4887.38  4938.96  4942.74  5072.25  5072.48
                             5075.94  5083.41  5435.19
 
 Zero-point correction=                           0.104725 (Hartree/Particle)
 Thermal correction to Energy=                    0.114681
 Thermal correction to Enthalpy=                  0.115625
 Thermal correction to Gibbs Free Energy=         0.067179
 Sum of electronic and zero-point Energies=          -1229.568934
 Sum of electronic and thermal Energies=             -1229.558978
 Sum of electronic and thermal Enthalpies=           -1229.558033
 Sum of electronic and thermal Free Energies=        -1229.606479
 
                     E (Thermal)             CV                S
                      KCal/Mol        Cal/Mol-Kelvin    Cal/Mol-Kelvin
 Total                   71.963             32.105            101.962
 Electronic               0.000              0.000              0.000
 Translational            0.889              2.981             43.157
 Rotational               0.889              2.981             29.844
 Vibrational             70.186             26.143             28.962
 Vibration     1          0.595              1.978              4.878
 Vibration     2          0.601              1.958              3.704
 Vibration     3          0.606              1.943              3.299
 Vibration     4          0.618              1.902              2.670
 Vibration     5          0.624              1.885              2.483
 Vibration     6          0.630              1.865              2.315
 Vibration     7          0.643              1.823              2.031
 Vibration     8          0.659              1.775              1.784
 Vibration     9          0.698              1.657              1.367
 Vibration    10          0.703              1.643              1.330
 Vibration    11          0.834              1.301              0.718
 Vibration    12          0.882              1.191              0.595
 Vibration    13          0.952              1.044              0.460
                       Q            Log10(Q)             Ln(Q)
 Total Bot       0.125809D-30        -30.900289        -71.150544
 Total V=0       0.186019D+18         17.269558         39.764627
 Vib (Bot)       0.763822D-45        -45.117008       -103.885749
 Vib (Bot)    1  0.426282D+01          0.629697          1.449931
 Vib (Bot)    2  0.233678D+01          0.368618          0.848773
 Vib (Bot)    3  0.189168D+01          0.276848          0.637466
 Vib (Bot)    4  0.135035D+01          0.130445          0.300360
 Vib (Bot)    5  0.121755D+01          0.085488          0.196844
 Vib (Bot)    6  0.110760D+01          0.044381          0.102192
 Vib (Bot)    7  0.938641D+00         -0.027501         -0.063323
 Vib (Bot)    8  0.807510D+00         -0.092852         -0.213800
 Vib (Bot)    9  0.612219D+00         -0.213093         -0.490665
 Vib (Bot)   10  0.595858D+00         -0.224857         -0.517753
 Vib (Bot)   11  0.351319D+00         -0.454299         -1.046061
 Vib (Bot)   12  0.304650D+00         -0.516199         -1.188593
 Vib (Bot)   13  0.252872D+00         -0.597098         -1.374870
 Vib (V=0)       0.112938D+04          3.052839          7.029422
 Vib (V=0)    1  0.479204D+01          0.680521          1.566957
 Vib (V=0)    2  0.288967D+01          0.460849          1.061143
 Vib (V=0)    3  0.245664D+01          0.390342          0.898797
 Vib (V=0)    4  0.193994D+01          0.287789          0.662658
 Vib (V=0)    5  0.181622D+01          0.259169          0.596758
 Vib (V=0)    6  0.171522D+01          0.234321          0.539544
 Vib (V=0)    7  0.156351D+01          0.194100          0.446931
 Vib (V=0)    8  0.144978D+01          0.161301          0.371408
 Vib (V=0)    9  0.129045D+01          0.110741          0.254991
 Vib (V=0)   10  0.127785D+01          0.106479          0.245177
 Vib (V=0)   11  0.111109D+01          0.045747          0.105337
 Vib (V=0)   12  0.108550D+01          0.035630          0.082042
 Vib (V=0)   13  0.106031D+01          0.025432          0.058559
 Electronic      0.100000D+01          0.000000          0.000000
 Translational   0.221807D+09          8.345975         19.217317
 Rotational      0.742582D+06          5.870744         13.517888
 
                                                         Title Card Required
                                                             IR Spectrum
 
     3     3333 333                                                        11111        11                                           
     7     5555 443                                                        66665        22              88 776   5 54    3322111 1   
     7     3222 339                                                        11008        98              10 529   9 27    1041865 084 
     8     3865 537                                                        32651        18              94 456   4 77    6931160 889 
 
     X     XXXX XXX                                                        XXXXX        XX              XX XXX   X XX    XXXXXXX XXX 
     X     XXXX   X                                                        XXX X        XX              XX   X   X        X XXX      
     X     XXX    X                                                        X X X        XX                   X   X        X  X       
     X            X                                                                     X                    X   X        X  X       
     X            X                                                                     X                    X   X           X       
     X            X                                                                     X                    X   X                   
                  X                                                                     X                    X   X                   
                  X                                                                     X                    X                       
                  X                                                                     X                    X                       
                  X                                                                                          X                       
                  X                                                                                          X                       
                  X                                                                                                                  
                  X                                                                                                                  
                  X                                                                                                                  
                  X                                                                                                                  
                  X                                                                                                                  
                  X                                                                                                                  
                  X                                                                                                                  
                  X                                                                                                                  
                  X                                                                                                                  
 
 ***** Axes restored to original set *****
 -------------------------------------------------------------------
 Center     Atomic                   Forces (Hartrees/Bohr)
 Number     Number              X              Y              Z
 -------------------------------------------------------------------
      1       78          -0.000034682   -0.000166621    0.000133054
      2        7          -0.000407157   -0.000210263    0.000004845
      3        1           0.000143564   -0.000008206    0.000069050
      4        1           0.000325576   -0.000084714    0.000271808
      5       17           0.000044367    0.000001830   -0.000005634
      6        8           0.000311657    0.000218796    0.000056728
      7        1          -0.000282523    0.000024888   -0.000209529
      8        1           0.000269715   -0.000083662    0.000010237
      9       17           0.000219458    0.000522427   -0.000356185
     10        7          -0.000450430   -0.000255407   -0.000209364
     11        1           0.000007392    0.000165484    0.000110150
     12        1           0.000156007    0.000041842    0.000074479
     13        1          -0.000266034   -0.000178507    0.000167794
     14        1          -0.000036911    0.000012113   -0.000117433
 -------------------------------------------------------------------
 Cartesian Forces:  Max     0.000522427 RMS     0.000207066
 Red2BG is reusing G-inverse.
 Leave Link  716 at Wed Dec 23 12:04:28 2020, MaxMem=  4026531840 cpu:         0.5
 (Enter /home/scicons/Gaussian09D/Gaussian09.D01/l9999.exe)


 THE RED LIGHT IS ALWAYS LONGER THAN THE GREEN LIGHT.

                     -- PETER'S THEORY OF RELATIVITY
 Error termination request processed by link 9999.
 Error termination via Lnk1e in /home/scicons/Gaussian09D/Gaussian09.D01/l9999.exe at Wed Dec 23 12:04:28 2020.
 Job cpu time:       1 days 15 hours 23 minutes 44.0 seconds.
 File lengths (MBytes):  RWF=    165 Int=      0 D2E=      0 Chk=     13 Scr=      1
