Title Card Required                                                     
Freq      RB3LYP                                                      def2TZVP            
Number of atoms                            I               14
Info1-9                                    I   N=           9
          38          38           0           0           1         100
           6          18        -502
Charge                                     I                0
Multiplicity                               I                1
Number of electrons                        I               82
Number of alpha electrons                  I               41
Number of beta electrons                   I               41
Number of basis functions                  I              255
Number of independent functions            I              255
Number of point charges in /Mol/           I                0
Number of translation vectors              I                0
Atomic numbers                             I   N=          14
          78           7           1           1           7           1
           1          17          17           8           1           1
           1           1
Nuclear charges                            R   N=          14
  1.80000000E+01  7.00000000E+00  1.00000000E+00  1.00000000E+00  7.00000000E+00
  1.00000000E+00  1.00000000E+00  1.70000000E+01  1.70000000E+01  8.00000000E+00
  1.00000000E+00  1.00000000E+00  1.00000000E+00  1.00000000E+00
Current cartesian coordinates              R   N=          42
  4.54547001E-01 -3.76937567E-01 -1.01994853E-01 -1.23299869E+00 -3.85243801E+00
 -6.42996409E-01 -2.99116196E+00 -3.75535711E+00  1.38474023E-01 -1.42687879E+00
 -4.24315782E+00 -2.51609997E+00  3.78061281E+00 -2.04930136E+00  8.63625687E-01
  5.09710595E+00 -7.06062425E-01  1.26952121E+00  3.56348964E+00 -3.16507552E+00
  2.41543999E+00 -4.50826407E+00  6.98192230E-01  1.75927983E+00  2.32056022E+00
  3.58372575E+00  4.47431355E-01 -2.39886359E+00  1.64857925E+00 -3.32913234E+00
 -1.63635892E+00  3.30984485E+00 -3.39191899E+00 -3.67573677E+00  1.75161165E+00
 -1.98234425E+00 -2.91619751E-01 -5.31989942E+00  1.67050495E-01  4.45506979E+00
 -3.13983803E+00 -5.69960358E-01
Force Field                                I                0
Int Atom Types                             I   N=          14
           0           0           0           0           0           0
           0           0           0           0           0           0
           0           0
MM charges                                 R   N=          14
  0.00000000E+00  0.00000000E+00  0.00000000E+00  0.00000000E+00  0.00000000E+00
  0.00000000E+00  0.00000000E+00  0.00000000E+00  0.00000000E+00  0.00000000E+00
  0.00000000E+00  0.00000000E+00  0.00000000E+00  0.00000000E+00
Integer atomic weights                     I   N=          14
         195          14           1           1          14           1
           1          35          35          16           1           1
           1           1
Real atomic weights                        R   N=          14
  1.94964800E+02  1.40030740E+01  1.00782504E+00  1.00782504E+00  1.40030740E+01
  1.00782504E+00  1.00782504E+00  3.49688527E+01  3.49688527E+01  1.59949146E+01
  1.00782504E+00  1.00782504E+00  1.00782504E+00  1.00782504E+00
Atom fragment info                         I   N=          14
           0           0           0           0           0           0
           0           0           0           0           0           0
           0           0
Atom residue num                           I   N=          14
           0           0           0           0           0           0
           0           0           0           0           0           0
           0           0
Nuclear spins                              I   N=          14
           1           2           1           1           2           1
           1           3           3           0           1           1
           1           1
Nuclear ZEff                               R   N=          14
 -1.17624000E+03 -4.55000000E+00 -1.00000000E+00 -1.00000000E+00 -4.55000000E+00
 -1.00000000E+00 -1.00000000E+00 -1.42400000E+01 -1.42400000E+01 -5.60000000E+00
 -1.00000000E+00 -1.00000000E+00 -1.00000000E+00 -1.00000000E+00
Nuclear ZNuc                               R   N=          14
  7.80000000E+01  7.00000000E+00  1.00000000E+00  1.00000000E+00  7.00000000E+00
  1.00000000E+00  1.00000000E+00  1.70000000E+01  1.70000000E+01  8.00000000E+00
  1.00000000E+00  1.00000000E+00  1.00000000E+00  1.00000000E+00
Nuclear QMom                               R   N=          14
  0.00000000E+00  2.04400000E+00  0.00000000E+00  0.00000000E+00  2.04400000E+00
  0.00000000E+00  0.00000000E+00 -8.16500000E+00 -8.16500000E+00  0.00000000E+00
  0.00000000E+00  0.00000000E+00  0.00000000E+00  0.00000000E+00
Nuclear GFac                               R   N=          14
  6.09500000E-01  4.03761000E-01  2.79284600E+00  2.79284600E+00  4.03761000E-01
  2.79284600E+00  2.79284600E+00  8.21874000E-01  8.21874000E-01  0.00000000E+00
  2.79284600E+00  2.79284600E+00  2.79284600E+00  2.79284600E+00
MicOpt                                     I   N=          14
          -1          -1          -1          -1          -1          -1
          -1          -1          -1          -1          -1          -1
          -1          -1
Number of contracted shells                I              105
Number of primitive shells                 I              184
Pure/Cartesian d shells                    I                0
Pure/Cartesian f shells                    I                0
Highest angular momentum                   I                3
Largest degree of contraction              I                7
Shell types                                I   N=         105
           0           0           0           0           0           0
           1           1           1           1          -2          -2
          -2          -3           0           0           0           0
           0           1           1           1          -2          -2
          -3           0           0           0           1           0
           0           0           1           0           0           0
           0           0           1           1           1          -2
          -2          -3           0           0           0           1
           0           0           0           1           0           0
           0           0           0           1           1           1
           1           1          -2          -2          -3           0
           0           0           0           0           1           1
           1           1           1          -2          -2          -3
           0           0           0           0           0           1
           1           1          -2          -2          -3           0
           0           0           1           0           0           0
           1           0           0           0           1           0
           0           0           1
Number of primitives per shell             I   N=         105
           3           1           1           1           1           1
           4           1           1           1           4           1
           1           1           6           2           1           1
           1           4           1           1           1           1
           1           3           1           1           1           3
           1           1           1           6           2           1
           1           1           4           1           1           1
           1           1           3           1           1           1
           3           1           1           1           7           3
           2           1           1           5           1           1
           1           1           2           1           1           7
           3           2           1           1           5           1
           1           1           1           2           1           1
           6           2           1           1           1           4
           1           1           1           1           1           3
           1           1           1           3           1           1
           1           3           1           1           1           3
           1           1           1
Shell to atom map                          I   N=         105
           1           1           1           1           1           1
           1           1           1           1           1           1
           1           1           2           2           2           2
           2           2           2           2           2           2
           2           3           3           3           3           4
           4           4           4           5           5           5
           5           5           5           5           5           5
           5           5           6           6           6           6
           7           7           7           7           8           8
           8           8           8           8           8           8
           8           8           8           8           8           9
           9           9           9           9           9           9
           9           9           9           9           9           9
          10          10          10          10          10          10
          10          10          10          10          10          11
          11          11          11          12          12          12
          12          13          13          13          13          14
          14          14          14
Primitive exponents                        R   N=         184
  3.00000000E+01  2.70000000E+01  1.44083186E+01  5.53357880E+00  1.29864382E+00
  5.87593931E-01  1.38455873E-01  4.92044599E-02  1.55000000E+01  1.40000000E+01
  6.11612123E+00  1.57155864E+00  7.51325108E-01  3.33064668E-01  5.70000000E-02
  8.32079376E+00  7.42072265E+00  1.65704106E+00  7.39435700E-01  3.05108560E-01
  1.13504053E-01  6.68130000E-01  1.97308006E+04  2.95789587E+03  6.73221336E+02
  1.90682495E+02  6.22954419E+01  2.26541612E+01  8.97914774E+00  3.68630024E+00
  8.46600768E-01  3.36471338E-01  1.36476537E-01  4.92003805E+01  1.13467905E+01
  3.42739724E+00  1.17855251E+00  4.16422050E-01  1.42608260E-01  1.65400000E+00
  4.69000000E-01  1.09300000E+00  3.40613410E+01  5.12357460E+00  1.16466260E+00
  3.27230410E-01  1.03072410E-01  8.00000000E-01  3.40613410E+01  5.12357460E+00
  1.16466260E+00  3.27230410E-01  1.03072410E-01  8.00000000E-01  1.97308006E+04
  2.95789587E+03  6.73221336E+02  1.90682495E+02  6.22954419E+01  2.26541612E+01
  8.97914774E+00  3.68630024E+00  8.46600768E-01  3.36471338E-01  1.36476537E-01
  4.92003805E+01  1.13467905E+01  3.42739724E+00  1.17855251E+00  4.16422050E-01
  1.42608260E-01  1.65400000E+00  4.69000000E-01  1.09300000E+00  3.40613410E+01
  5.12357460E+00  1.16466260E+00  3.27230410E-01  1.03072410E-01  8.00000000E-01
  3.40613410E+01  5.12357460E+00  1.16466260E+00  3.27230410E-01  1.03072410E-01
  8.00000000E-01  6.95079909E+04  1.04261569E+04  2.37323341E+03  6.71564201E+02
  2.18419998E+02  7.75722497E+01  2.88888153E+01  1.27105272E+02  3.93395830E+01
  7.67406800E+00  3.87456276E+00  1.83858326E+00  5.02290575E-01  1.79627234E-01
  6.66504233E+02  1.57642417E+02  5.02625210E+01  1.85360781E+01  7.29405328E+00
  2.94332490E+00  1.04049708E+00  3.84564151E-01  1.30696427E-01  4.61000000E+00
  1.01100000E+00  3.39000000E-01  7.06000000E-01  6.95079909E+04  1.04261569E+04
  2.37323341E+03  6.71564201E+02  2.18419998E+02  7.75722497E+01  2.88888153E+01
  1.27105272E+02  3.93395830E+01  7.67406800E+00  3.87456276E+00  1.83858326E+00
  5.02290575E-01  1.79627234E-01  6.66504233E+02  1.57642417E+02  5.02625210E+01
  1.85360781E+01  7.29405328E+00  2.94332490E+00  1.04049708E+00  3.84564151E-01
  1.30696427E-01  4.61000000E+00  1.01100000E+00  3.39000000E-01  7.06000000E-01
  2.70323826E+04  4.05238714E+03  9.22327227E+02  2.61240710E+02  8.53546414E+01
  3.10350352E+01  1.22608607E+01  4.99870760E+00  1.17031082E+00  4.64747410E-01
  1.85045364E-01  6.32749548E+01  1.46270494E+01  4.45012235E+00  1.52757996E+00
  5.29351179E-01  1.74784213E-01  2.31400000E+00  6.45000000E-01  1.42800000E+00
  3.40613410E+01  5.12357460E+00  1.16466260E+00  3.27230410E-01  1.03072410E-01
  8.00000000E-01  3.40613410E+01  5.12357460E+00  1.16466260E+00  3.27230410E-01
  1.03072410E-01  8.00000000E-01  3.40613410E+01  5.12357460E+00  1.16466260E+00
  3.27230410E-01  1.03072410E-01  8.00000000E-01  3.40613410E+01  5.12357460E+00
  1.16466260E+00  3.27230410E-01  1.03072410E-01  8.00000000E-01
Contraction coefficients                   R   N=         184
  9.05493829E-01 -1.40841674E+00  1.47962090E+00  1.00000000E+00  1.00000000E+00
  1.00000000E+00  1.00000000E+00  1.00000000E+00 -3.47854184E-01  5.29423753E-01
 -6.88959846E-01  1.25342338E+00  1.00000000E+00  1.00000000E+00  1.00000000E+00
  1.63515557E-01 -2.34500978E-01  4.36742354E-01  6.50609794E-01  1.00000000E+00
  1.00000000E+00  1.00000000E+00  5.86264026E-04  4.54288206E-03  2.35584135E-02
  9.47091933E-02  2.97197849E-01  6.69162469E-01  6.45966836E-01  3.87005744E-01
  1.00000000E+00  1.00000000E+00  1.00000000E+00  1.14488251E-02  7.84223380E-02
  3.08180947E-01  7.20271964E-01  1.00000000E+00  1.00000000E+00  1.00000000E+00
  1.00000000E+00  1.00000000E+00  2.54393072E-02  1.90085949E-01  8.52441130E-01
  1.00000000E+00  1.00000000E+00  1.00000000E+00  2.54393072E-02  1.90085949E-01
  8.52441130E-01  1.00000000E+00  1.00000000E+00  1.00000000E+00  5.86264026E-04
  4.54288206E-03  2.35584135E-02  9.47091933E-02  2.97197849E-01  6.69162469E-01
  6.45966836E-01  3.87005744E-01  1.00000000E+00  1.00000000E+00  1.00000000E+00
  1.14488251E-02  7.84223380E-02  3.08180947E-01  7.20271964E-01  1.00000000E+00
  1.00000000E+00  1.00000000E+00  1.00000000E+00  1.00000000E+00  2.54393072E-02
  1.90085949E-01  8.52441130E-01  1.00000000E+00  1.00000000E+00  1.00000000E+00
  2.54393072E-02  1.90085949E-01  8.52441130E-01  1.00000000E+00  1.00000000E+00
  1.00000000E+00  5.14573896E-04  3.97813448E-03  2.04561787E-02  8.01481029E-02
  2.34547703E-01  4.45433686E-01  3.54668425E-01  1.12936881E-01  4.83735142E-01
 -1.22922974E+00  6.72968216E-01  3.49560514E-01  1.00000000E+00  1.00000000E+00
  3.35025082E-03  2.67639704E-02  1.23626824E-01  3.58457879E-01  6.16772964E-01
  1.00000000E+00  1.00000000E+00  1.00000000E+00  1.00000000E+00  1.82658350E-01
  9.13291752E-01  1.00000000E+00  1.00000000E+00  5.14573896E-04  3.97813448E-03
  2.04561787E-02  8.01481029E-02  2.34547703E-01  4.45433686E-01  3.54668425E-01
  1.12936881E-01  4.83735142E-01 -1.22922974E+00  6.72968216E-01  3.49560514E-01
  1.00000000E+00  1.00000000E+00  3.35025082E-03  2.67639704E-02  1.23626824E-01
  3.58457879E-01  6.16772964E-01  1.00000000E+00  1.00000000E+00  1.00000000E+00
  1.00000000E+00  1.82658350E-01  9.13291752E-01  1.00000000E+00  1.00000000E+00
  5.72273352E-04  4.43532335E-03  2.30201077E-02  9.28224907E-02  2.93785000E-01
  6.74016045E-01  6.38399370E-01  3.95345871E-01  1.00000000E+00  1.00000000E+00
  1.00000000E+00  1.20183322E-02  8.30054218E-02  3.19917439E-01  7.07155429E-01
  1.00000000E+00  1.00000000E+00  1.00000000E+00  1.00000000E+00  1.00000000E+00
  2.54393072E-02  1.90085949E-01  8.52441130E-01  1.00000000E+00  1.00000000E+00
  1.00000000E+00  2.54393072E-02  1.90085949E-01  8.52441130E-01  1.00000000E+00
  1.00000000E+00  1.00000000E+00  2.54393072E-02  1.90085949E-01  8.52441130E-01
  1.00000000E+00  1.00000000E+00  1.00000000E+00  2.54393072E-02  1.90085949E-01
  8.52441130E-01  1.00000000E+00  1.00000000E+00  1.00000000E+00
Coordinates of each shell                  R   N=         315
  4.54547001E-01 -3.76937567E-01 -1.01994853E-01  4.54547001E-01 -3.76937567E-01
 -1.01994853E-01  4.54547001E-01 -3.76937567E-01 -1.01994853E-01  4.54547001E-01
 -3.76937567E-01 -1.01994853E-01  4.54547001E-01 -3.76937567E-01 -1.01994853E-01
  4.54547001E-01 -3.76937567E-01 -1.01994853E-01  4.54547001E-01 -3.76937567E-01
 -1.01994853E-01  4.54547001E-01 -3.76937567E-01 -1.01994853E-01  4.54547001E-01
 -3.76937567E-01 -1.01994853E-01  4.54547001E-01 -3.76937567E-01 -1.01994853E-01
  4.54547001E-01 -3.76937567E-01 -1.01994853E-01  4.54547001E-01 -3.76937567E-01
 -1.01994853E-01  4.54547001E-01 -3.76937567E-01 -1.01994853E-01  4.54547001E-01
 -3.76937567E-01 -1.01994853E-01 -1.23299869E+00 -3.85243801E+00 -6.42996409E-01
 -1.23299869E+00 -3.85243801E+00 -6.42996409E-01 -1.23299869E+00 -3.85243801E+00
 -6.42996409E-01 -1.23299869E+00 -3.85243801E+00 -6.42996409E-01 -1.23299869E+00
 -3.85243801E+00 -6.42996409E-01 -1.23299869E+00 -3.85243801E+00 -6.42996409E-01
 -1.23299869E+00 -3.85243801E+00 -6.42996409E-01 -1.23299869E+00 -3.85243801E+00
 -6.42996409E-01 -1.23299869E+00 -3.85243801E+00 -6.42996409E-01 -1.23299869E+00
 -3.85243801E+00 -6.42996409E-01 -1.23299869E+00 -3.85243801E+00 -6.42996409E-01
 -2.99116196E+00 -3.75535711E+00  1.38474023E-01 -2.99116196E+00 -3.75535711E+00
  1.38474023E-01 -2.99116196E+00 -3.75535711E+00  1.38474023E-01 -2.99116196E+00
 -3.75535711E+00  1.38474023E-01 -1.42687879E+00 -4.24315782E+00 -2.51609997E+00
 -1.42687879E+00 -4.24315782E+00 -2.51609997E+00 -1.42687879E+00 -4.24315782E+00
 -2.51609997E+00 -1.42687879E+00 -4.24315782E+00 -2.51609997E+00  3.78061281E+00
 -2.04930136E+00  8.63625687E-01  3.78061281E+00 -2.04930136E+00  8.63625687E-01
  3.78061281E+00 -2.04930136E+00  8.63625687E-01  3.78061281E+00 -2.04930136E+00
  8.63625687E-01  3.78061281E+00 -2.04930136E+00  8.63625687E-01  3.78061281E+00
 -2.04930136E+00  8.63625687E-01  3.78061281E+00 -2.04930136E+00  8.63625687E-01
  3.78061281E+00 -2.04930136E+00  8.63625687E-01  3.78061281E+00 -2.04930136E+00
  8.63625687E-01  3.78061281E+00 -2.04930136E+00  8.63625687E-01  3.78061281E+00
 -2.04930136E+00  8.63625687E-01  5.09710595E+00 -7.06062425E-01  1.26952121E+00
  5.09710595E+00 -7.06062425E-01  1.26952121E+00  5.09710595E+00 -7.06062425E-01
  1.26952121E+00  5.09710595E+00 -7.06062425E-01  1.26952121E+00  3.56348964E+00
 -3.16507552E+00  2.41543999E+00  3.56348964E+00 -3.16507552E+00  2.41543999E+00
  3.56348964E+00 -3.16507552E+00  2.41543999E+00  3.56348964E+00 -3.16507552E+00
  2.41543999E+00 -4.50826407E+00  6.98192230E-01  1.75927983E+00 -4.50826407E+00
  6.98192230E-01  1.75927983E+00 -4.50826407E+00  6.98192230E-01  1.75927983E+00
 -4.50826407E+00  6.98192230E-01  1.75927983E+00 -4.50826407E+00  6.98192230E-01
  1.75927983E+00 -4.50826407E+00  6.98192230E-01  1.75927983E+00 -4.50826407E+00
  6.98192230E-01  1.75927983E+00 -4.50826407E+00  6.98192230E-01  1.75927983E+00
 -4.50826407E+00  6.98192230E-01  1.75927983E+00 -4.50826407E+00  6.98192230E-01
  1.75927983E+00 -4.50826407E+00  6.98192230E-01  1.75927983E+00 -4.50826407E+00
  6.98192230E-01  1.75927983E+00 -4.50826407E+00  6.98192230E-01  1.75927983E+00
  2.32056022E+00  3.58372575E+00  4.47431355E-01  2.32056022E+00  3.58372575E+00
  4.47431355E-01  2.32056022E+00  3.58372575E+00  4.47431355E-01  2.32056022E+00
  3.58372575E+00  4.47431355E-01  2.32056022E+00  3.58372575E+00  4.47431355E-01
  2.32056022E+00  3.58372575E+00  4.47431355E-01  2.32056022E+00  3.58372575E+00
  4.47431355E-01  2.32056022E+00  3.58372575E+00  4.47431355E-01  2.32056022E+00
  3.58372575E+00  4.47431355E-01  2.32056022E+00  3.58372575E+00  4.47431355E-01
  2.32056022E+00  3.58372575E+00  4.47431355E-01  2.32056022E+00  3.58372575E+00
  4.47431355E-01  2.32056022E+00  3.58372575E+00  4.47431355E-01 -2.39886359E+00
  1.64857925E+00 -3.32913234E+00 -2.39886359E+00  1.64857925E+00 -3.32913234E+00
 -2.39886359E+00  1.64857925E+00 -3.32913234E+00 -2.39886359E+00  1.64857925E+00
 -3.32913234E+00 -2.39886359E+00  1.64857925E+00 -3.32913234E+00 -2.39886359E+00
  1.64857925E+00 -3.32913234E+00 -2.39886359E+00  1.64857925E+00 -3.32913234E+00
 -2.39886359E+00  1.64857925E+00 -3.32913234E+00 -2.39886359E+00  1.64857925E+00
 -3.32913234E+00 -2.39886359E+00  1.64857925E+00 -3.32913234E+00 -2.39886359E+00
  1.64857925E+00 -3.32913234E+00 -1.63635892E+00  3.30984485E+00 -3.39191899E+00
 -1.63635892E+00  3.30984485E+00 -3.39191899E+00 -1.63635892E+00  3.30984485E+00
 -3.39191899E+00 -1.63635892E+00  3.30984485E+00 -3.39191899E+00 -3.67573677E+00
  1.75161165E+00 -1.98234425E+00 -3.67573677E+00  1.75161165E+00 -1.98234425E+00
 -3.67573677E+00  1.75161165E+00 -1.98234425E+00 -3.67573677E+00  1.75161165E+00
 -1.98234425E+00 -2.91619751E-01 -5.31989942E+00  1.67050495E-01 -2.91619751E-01
 -5.31989942E+00  1.67050495E-01 -2.91619751E-01 -5.31989942E+00  1.67050495E-01
 -2.91619751E-01 -5.31989942E+00  1.67050495E-01  4.45506979E+00 -3.13983803E+00
 -5.69960358E-01  4.45506979E+00 -3.13983803E+00 -5.69960358E-01  4.45506979E+00
 -3.13983803E+00 -5.69960358E-01  4.45506979E+00 -3.13983803E+00 -5.69960358E-01
Constraint Structure                       R   N=          42
 -2.12895712E-01 -2.68573531E-01 -2.33538423E-02 -3.93702518E+00 -7.80074237E-01
 -1.28237944E-01 -4.64393817E+00  5.19923200E-02 -1.67064000E+00 -4.31749545E+00
 -2.63037145E+00 -1.80271132E-01 -3.74831132E-02 -2.20567206E+00  3.19513239E+00
  1.14430970E+00 -3.66564871E+00  2.98801215E+00  5.90212013E-01 -1.07809045E+00
  4.57557557E+00 -8.01358900E-01  3.99881299E+00  5.99941330E-02  4.05394609E+00
  3.17467479E-01  9.68148775E-02  1.18508454E-01 -2.02015012E+00 -3.24843134E+00
  3.27354439E-01 -3.79775706E+00 -2.95247483E+00  1.56481894E+00 -1.38115969E+00
 -4.13779658E+00 -4.72106374E+00 -1.88791263E-02  1.41349173E+00 -1.75882402E+00
 -2.84669336E+00  3.63913920E+00
Num ILSW                                   I              100
ILSW                                       I   N=         100
           0           0           0           0           2           0
           0           0           0           0         402          -1
           0           0           0           0           2           0
           0           0           0           0           1           0
           1           0           0           0           0           0
           0           0      100000           0          -1           0
           0           0           0           0           0           0
           0           0           0           1           0           0
           0           0           1           0           0           0
           0           0         141          41           0           0
           0           0           5           0           0           0
           0           0           0          14           0           0
           0           0           0           0           0           0
           0           0           0           0           0           0
           0           0           0           0           0           0
           0           0           0           0           0           0
           0           0           0           0
Num RLSW                                   I               41
RLSW                                       R   N=          41
  8.00000000E-01  7.20000000E-01  1.00000000E+00  8.10000000E-01  2.00000000E-01
  0.00000000E+00  0.00000000E+00  1.00000000E+00  0.00000000E+00  0.00000000E+00
  0.00000000E+00  0.00000000E+00  1.00000000E+00  0.00000000E+00  0.00000000E+00
  0.00000000E+00  0.00000000E+00  1.00000000E+00  0.00000000E+00  0.00000000E+00
  0.00000000E+00  0.00000000E+00  1.00000000E+00  0.00000000E+00  0.00000000E+00
  0.00000000E+00  0.00000000E+00  1.00000000E+00  0.00000000E+00  0.00000000E+00
  0.00000000E+00  0.00000000E+00  1.00000000E+00  0.00000000E+00  0.00000000E+00
  0.00000000E+00  0.00000000E+00  0.00000000E+00  1.00000000E+00  1.00000000E+00
  0.00000000E+00
ECP-MxAtEC                                 I           250000
ECP-MaxLECP                                I               10
ECP-MaxAtL                                 I          2250000
ECP-MxTECP                                 I         11250000
ECP-LenNCZ                                 I                9
ECP-KFirst                                 I   N=         140
           1           0           0           0           0           0
           0           0           0           0           0           0
           0           0           2           0           0           0
           0           0           0           0           0           0
           0           0           0           0           4           0
           0           0           0           0           0           0
           0           0           0           0           0           0
           6           0           0           0           0           0
           0           0           0           0           0           0
           0           0           8           0           0           0
           0           0           0           0           0           0
           0           0           0           0           9           0
           0           0           0           0           0           0
           0           0           0           0           0           0
           0           0           0           0           0           0
           0           0           0           0           0           0
           0           0           0           0           0           0
           0           0           0           0           0           0
           0           0           0           0           0           0
           0           0           0           0           0           0
           0           0           0           0           0           0
           0           0           0           0           0           0
           0           0           0           0           0           0
           0           0
ECP-KLast                                  I   N=         140
           1           0           0           0           0           0
           0           0           0           0           0           0
           0           0           3           0           0           0
           0           0           0           0           0           0
           0           0           0           0           5           0
           0           0           0           0           0           0
           0           0           0           0           0           0
           7           0           0           0           0           0
           0           0           0           0           0           0
           0           0           8           0           0           0
           0           0           0           0           0           0
           0           0           0           0           9           0
           0           0           0           0           0           0
           0           0           0           0           0           0
           0           0           0           0           0           0
           0           0           0           0           0           0
           0           0           0           0           0           0
           0           0           0           0           0           0
           0           0           0           0           0           0
           0           0           0           0           0           0
           0           0           0           0           0           0
           0           0           0           0           0           0
           0           0           0           0           0           0
           0           0
ECP-LMax                                   I   N=          14
           5           0           0           0           0           0
           0           0           0           0           0           0
           0           0
ECP-LPSkip                                 I   N=          14
           0           1           1           1           1           1
           1           1           1           1           1           1
           1           1
ECP-RNFroz                                 R   N=          14
  6.00000000E+01  0.00000000E+00  0.00000000E+00  0.00000000E+00  0.00000000E+00
  0.00000000E+00  0.00000000E+00  0.00000000E+00  0.00000000E+00  0.00000000E+00
  0.00000000E+00  0.00000000E+00  0.00000000E+00  0.00000000E+00
ECP-NLP                                    I   N=           9
           2           2           2           2           2           2
           2           2           2
ECP-CLP1                                   R   N=           9
  0.00000000E+00  5.79223861E+02  2.96694910E+01  2.80860774E+02  2.67453820E+01
  1.20396444E+02  1.58109210E+01  2.43143760E+01 -2.42186750E+01
ECP-CLP2                                   R   N=           9
  0.00000000E+00  0.00000000E+00  0.00000000E+00  0.00000000E+00  0.00000000E+00
  0.00000000E+00  0.00000000E+00  0.00000000E+00  0.00000000E+00
ECP-ZLP                                    R   N=           9
  1.00000000E+00  1.34286510E+01  6.71432600E+00  1.03659440E+01  5.18297200E+00
  7.60047900E+00  3.80024000E+00  3.30956900E+00  5.27728900E+00
MxBond                                     I                5
NBond                                      I   N=          14
           5           4           1           1           4           1
           1           1           1           3           1           1
           1           1
IBond                                      I   N=          70
           2           5           8           9          10           1
           3           4          13           0           2           0
           0           0           0           2           0           0
           0           0           1           6           7          14