 Entering Gaussian System, Link 0=g09
 Input=pt-n-o-ts-81-nosol.gjf
 Output=pt-n-o-ts-81-nosol.log
 Initial command:
 /home/scicons/Gaussian09.D01/l1.exe "/tmp/tmp.IULiltgwdA/Gau-133134.inp" -scrdir="/tmp/tmp.IULiltgwdA/"
 Default is to use a total of   4 processors:
                                4 via shared-memory
                                1 via Linda
 Entering Link 1 = /home/scicons/Gaussian09.D01/l1.exe PID=    133135.
  
 Copyright (c) 1988,1990,1992,1993,1995,1998,2003,2009,2013,
            Gaussian, Inc.  All Rights Reserved.
  
 This is part of the Gaussian(R) 09 program.  It is based on
 the Gaussian(R) 03 system (copyright 2003, Gaussian, Inc.),
 the Gaussian(R) 98 system (copyright 1998, Gaussian, Inc.),
 the Gaussian(R) 94 system (copyright 1995, Gaussian, Inc.),
 the Gaussian 92(TM) system (copyright 1992, Gaussian, Inc.),
 the Gaussian 90(TM) system (copyright 1990, Gaussian, Inc.),
 the Gaussian 88(TM) system (copyright 1988, Gaussian, Inc.),
 the Gaussian 86(TM) system (copyright 1986, Carnegie Mellon
 University), and the Gaussian 82(TM) system (copyright 1983,
 Carnegie Mellon University). Gaussian is a federally registered
 trademark of Gaussian, Inc.
  
 This software contains proprietary and confidential information,
 including trade secrets, belonging to Gaussian, Inc.
  
 This software is provided under written license and may be
 used, copied, transmitted, or stored only in accord with that
 written license.
  
 The following legend is applicable only to US Government
 contracts under FAR:
  
                    RESTRICTED RIGHTS LEGEND
  
 Use, reproduction and disclosure by the US Government is
 subject to restrictions as set forth in subparagraphs (a)
 and (c) of the Commercial Computer Software - Restricted
 Rights clause in FAR 52.227-19.
  
 Gaussian, Inc.
 340 Quinnipiac St., Bldg. 40, Wallingford CT 06492
  
  
 ---------------------------------------------------------------
 Warning -- This program may not be used in any manner that
 competes with the business of Gaussian, Inc. or will provide
 assistance to any competitor of Gaussian, Inc.  The licensee
 of this program is prohibited from giving any competitor of
 Gaussian, Inc. access to this program.  By using this program,
 the user acknowledges that Gaussian, Inc. is engaged in the
 business of creating and licensing software in the field of
 computational chemistry and represents and warrants to the
 licensee that it is not a competitor of Gaussian, Inc. and that
 it will not use this program in any manner prohibited above.
 ---------------------------------------------------------------
  

 Cite this work as:
 Gaussian 09, Revision D.01,
 M. J. Frisch, G. W. Trucks, H. B. Schlegel, G. E. Scuseria, 
 M. A. Robb, J. R. Cheeseman, G. Scalmani, V. Barone, B. Mennucci, 
 G. A. Petersson, H. Nakatsuji, M. Caricato, X. Li, H. P. Hratchian, 
 A. F. Izmaylov, J. Bloino, G. Zheng, J. L. Sonnenberg, M. Hada, 
 M. Ehara, K. Toyota, R. Fukuda, J. Hasegawa, M. Ishida, T. Nakajima, 
 Y. Honda, O. Kitao, H. Nakai, T. Vreven, J. A. Montgomery, Jr., 
 J. E. Peralta, F. Ogliaro, M. Bearpark, J. J. Heyd, E. Brothers, 
 K. N. Kudin, V. N. Staroverov, T. Keith, R. Kobayashi, J. Normand, 
 K. Raghavachari, A. Rendell, J. C. Burant, S. S. Iyengar, J. Tomasi, 
 M. Cossi, N. Rega, J. M. Millam, M. Klene, J. E. Knox, J. B. Cross, 
 V. Bakken, C. Adamo, J. Jaramillo, R. Gomperts, R. E. Stratmann, 
 O. Yazyev, A. J. Austin, R. Cammi, C. Pomelli, J. W. Ochterski, 
 R. L. Martin, K. Morokuma, V. G. Zakrzewski, G. A. Voth, 
 P. Salvador, J. J. Dannenberg, S. Dapprich, A. D. Daniels, 
 O. Farkas, J. B. Foresman, J. V. Ortiz, J. Cioslowski, 
 and D. J. Fox, Gaussian, Inc., Wallingford CT, 2013.
 
 ******************************************
 Gaussian 09:  ES64L-G09RevD.01 24-Apr-2013
                28-Dec-2020 
 ******************************************
 %nproc=20
 Will use up to   20 processors via shared memory.
 %mem=30GB
 %chk=pt-n-o-ts-81.chk
 --------------------------------------------------------
 #p opt=(calcall,ts,noeigen) freq b3lyp/def2tzvp em=gd3bj
 --------------------------------------------------------
 1/5=1,10=4,11=1,14=-1,18=20,26=3,38=1/1,3;
 2/9=110,12=2,17=6,18=5,40=1/2;
 3/5=44,7=101,11=2,16=1,25=1,30=1,71=2,74=-5,124=41,140=1/1,2,3;
 4//1;
 5/5=2,38=5/2;
 8/6=4,10=90,11=11/1;
 11/6=1,8=1,9=11,15=111,16=1/1,2,10;
 10/6=1/2;
 6/7=2,8=2,9=2,10=2,18=1,28=1/1;
 7/10=1,25=1/1,2,3,16;
 1/5=1,10=4,11=1,14=-1,18=20,26=3/3(3);
 2/9=110/2;
 7/8=1,9=1,25=1,44=-1/16;
 99//99;
 2/9=110/2;
 3/5=44,7=101,11=2,16=1,25=1,30=1,71=2,74=-5,124=41,140=1/1,2,3;
 4/5=5,16=3,69=1/1;
 5/5=2,38=5/2;
 8/6=4,10=90,11=11/1;
 11/6=1,8=1,9=11,15=111,16=1/1,2,10;
 10/6=1/2;
 7/10=1,25=1/1,2,3,16;
 1/5=1,10=4,11=1,14=-1,18=20,26=3/3(-8);
 2/9=110/2;
 6/7=2,8=2,9=2,10=2,18=1,19=2,28=1/1;
 7/8=1,9=1,25=1,44=-1/16;
 99//99;
 Leave Link    1 at Mon Dec 28 12:22:46 2020, MaxMem=  4026531840 cpu:         0.8
 (Enter /home/scicons/Gaussian09.D01/l101.exe)
 --------------------------
 Generated from Sexy Viewer
 --------------------------
 Symbolic Z-matrix:
 Charge =  0 Multiplicity = 1
 Pt                   -0.35924  -0.03689   0.15911 
 Cl                   -2.41069  -1.78518  -0.13076 
 Cl                   -2.242     1.8229    0.62234 
 N                    -0.40112  -0.05256  -1.86074 
 H                    -0.71196   0.84719  -2.22189 
 H                     0.48875  -0.27628  -2.3013 
 O                    -0.48066   0.00306   2.26079 
 H                     0.32487   0.31778   2.69943 
 H                    -1.14012   0.72468   2.35169 
 N                     1.72985  -0.18147   0.13973 
 H                     2.02518  -1.1365   -0.04637 
 H                     2.13818   0.41629  -0.57473 
 H                     2.12322   0.0972    1.03511 
 H                    -1.08427  -0.76022  -2.13241 
 
 Add virtual bond connecting atoms Pt1        and Cl2        Dist= 5.12D+00.
 Add virtual bond connecting atoms H14        and Cl2        Dist= 4.93D+00.
 NAtoms=     14 NQM=       14 NQMF=       0 NMMI=      0 NMMIF=      0
                NMic=       0 NMicF=      0.
                    Isotopes and Nuclear Properties:
 (Nuclear quadrupole moments (NQMom) in fm**2, nuclear magnetic moments (NMagM)
  in nuclear magnetons)

  Atom         1           2           3           4           5           6           7           8           9          10
 IAtWgt=         195          35          35          14           1           1          16           1           1          14
 AtmWgt= 194.9648000  34.9688527  34.9688527  14.0030740   1.0078250   1.0078250  15.9949146   1.0078250   1.0078250  14.0030740
 NucSpn=           1           3           3           2           1           1           0           1           1           2
 AtZEff=   0.0000000   0.0000000   0.0000000   0.0000000   0.0000000   0.0000000   0.0000000   0.0000000   0.0000000   0.0000000
 NQMom=    0.0000000  -8.1650000  -8.1650000   2.0440000   0.0000000   0.0000000   0.0000000   0.0000000   0.0000000   2.0440000
 NMagM=    0.6095000   0.8218740   0.8218740   0.4037610   2.7928460   2.7928460   0.0000000   2.7928460   2.7928460   0.4037610
 AtZNuc=  78.0000000  17.0000000  17.0000000   7.0000000   1.0000000   1.0000000   8.0000000   1.0000000   1.0000000   7.0000000

  Atom        11          12          13          14
 IAtWgt=           1           1           1           1
 AtmWgt=   1.0078250   1.0078250   1.0078250   1.0078250
 NucSpn=           1           1           1           1
 AtZEff=   0.0000000   0.0000000   0.0000000   0.0000000
 NQMom=    0.0000000   0.0000000   0.0000000   0.0000000
 NMagM=    2.7928460   2.7928460   2.7928460   2.7928460
 AtZNuc=   1.0000000   1.0000000   1.0000000   1.0000000
 Leave Link  101 at Mon Dec 28 12:22:46 2020, MaxMem=  4026531840 cpu:        10.8
 (Enter /home/scicons/Gaussian09.D01/l103.exe)

 GradGradGradGradGradGradGradGradGradGradGradGradGradGradGradGradGradGrad
 Berny optimization.
 Initialization pass.
                           ----------------------------
                           !    Initial Parameters    !
                           ! (Angstroms and Degrees)  !
 --------------------------                            --------------------------
 ! Name  Definition              Value          Derivative Info.                !
 --------------------------------------------------------------------------------
 ! R1    R(1,2)                  2.7109         calculate D2E/DX2 analytically  !
 ! R2    R(1,3)                  2.6867         calculate D2E/DX2 analytically  !
 ! R3    R(1,4)                  2.0203         calculate D2E/DX2 analytically  !
 ! R4    R(1,7)                  2.1056         calculate D2E/DX2 analytically  !
 ! R5    R(1,10)                 2.0942         calculate D2E/DX2 analytically  !
 ! R6    R(2,14)                 2.6108         calculate D2E/DX2 analytically  !
 ! R7    R(4,5)                  1.0181         calculate D2E/DX2 analytically  !
 ! R8    R(4,6)                  1.0178         calculate D2E/DX2 analytically  !
 ! R9    R(4,14)                 1.0204         calculate D2E/DX2 analytically  !
 ! R10   R(7,8)                  0.9697         calculate D2E/DX2 analytically  !
 ! R11   R(7,9)                  0.9818         calculate D2E/DX2 analytically  !
 ! R12   R(10,11)                1.0168         calculate D2E/DX2 analytically  !
 ! R13   R(10,12)                1.0171         calculate D2E/DX2 analytically  !
 ! R14   R(10,13)                1.0169         calculate D2E/DX2 analytically  !
 ! A1    A(2,1,3)               86.2477         calculate D2E/DX2 analytically  !
 ! A2    A(2,1,4)               82.6697         calculate D2E/DX2 analytically  !
 ! A3    A(2,1,7)               94.3204         calculate D2E/DX2 analytically  !
 ! A4    A(2,1,10)             135.1852         calculate D2E/DX2 analytically  !
 ! A5    A(3,1,4)               99.3938         calculate D2E/DX2 analytically  !
 ! A6    A(3,1,7)               76.9593         calculate D2E/DX2 analytically  !
 ! A7    A(3,1,10)             138.4573         calculate D2E/DX2 analytically  !
 ! A8    A(4,1,10)              90.6239         calculate D2E/DX2 analytically  !
 ! A9    A(7,1,10)              93.9031         calculate D2E/DX2 analytically  !
 ! A10   A(1,2,14)              56.2444         calculate D2E/DX2 analytically  !
 ! A11   A(1,4,5)              110.7387         calculate D2E/DX2 analytically  !
 ! A12   A(1,4,6)              114.6024         calculate D2E/DX2 analytically  !
 ! A13   A(1,4,14)             106.5841         calculate D2E/DX2 analytically  !
 ! A14   A(5,4,6)              107.9162         calculate D2E/DX2 analytically  !
 ! A15   A(5,4,14)             108.3015         calculate D2E/DX2 analytically  !
 ! A16   A(6,4,14)             108.5196         calculate D2E/DX2 analytically  !
 ! A17   A(1,7,8)              114.1901         calculate D2E/DX2 analytically  !
 ! A18   A(1,7,9)               98.3427         calculate D2E/DX2 analytically  !
 ! A19   A(8,7,9)              106.1141         calculate D2E/DX2 analytically  !
 ! A20   A(1,10,11)            110.8713         calculate D2E/DX2 analytically  !
 ! A21   A(1,10,12)            111.4946         calculate D2E/DX2 analytically  !
 ! A22   A(1,10,13)            111.0278         calculate D2E/DX2 analytically  !
 ! A23   A(11,10,12)           107.8681         calculate D2E/DX2 analytically  !
 ! A24   A(11,10,13)           107.8294         calculate D2E/DX2 analytically  !
 ! A25   A(12,10,13)           107.5865         calculate D2E/DX2 analytically  !
 ! A26   A(2,14,4)             114.0951         calculate D2E/DX2 analytically  !
 ! A27   L(4,1,7,2,-1)         176.9902         calculate D2E/DX2 analytically  !
 ! A28   L(4,1,7,2,-2)         183.4159         calculate D2E/DX2 analytically  !
 ! D1    D(3,1,2,14)           102.5373         calculate D2E/DX2 analytically  !
 ! D2    D(4,1,2,14)             2.5545         calculate D2E/DX2 analytically  !
 ! D3    D(7,1,2,14)           179.1386         calculate D2E/DX2 analytically  !
 ! D4    D(10,1,2,14)          -80.9054         calculate D2E/DX2 analytically  !
 ! D5    D(2,1,4,5)            111.9108         calculate D2E/DX2 analytically  !
 ! D6    D(2,1,4,6)           -125.7346         calculate D2E/DX2 analytically  !
 ! D7    D(2,1,4,14)            -5.6772         calculate D2E/DX2 analytically  !
 ! D8    D(3,1,4,5)             26.9687         calculate D2E/DX2 analytically  !
 ! D9    D(3,1,4,6)            149.3232         calculate D2E/DX2 analytically  !
 ! D10   D(3,1,4,14)           -90.6193         calculate D2E/DX2 analytically  !
 ! D11   D(10,1,4,5)          -112.538          calculate D2E/DX2 analytically  !
 ! D12   D(10,1,4,6)             9.8165         calculate D2E/DX2 analytically  !
 ! D13   D(10,1,4,14)          129.874          calculate D2E/DX2 analytically  !
 ! D14   D(5,4,7,8)            -88.5677         calculate D2E/DX2 analytically  !
 ! D15   D(5,4,7,9)             23.0423         calculate D2E/DX2 analytically  !
 ! D16   D(6,4,7,8)             34.6563         calculate D2E/DX2 analytically  !
 ! D17   D(6,4,7,9)            146.2663         calculate D2E/DX2 analytically  !
 ! D18   D(14,4,7,8)           155.1379         calculate D2E/DX2 analytically  !
 ! D19   D(14,4,7,9)           -93.2521         calculate D2E/DX2 analytically  !
 ! D20   D(2,1,7,8)            160.1262         calculate D2E/DX2 analytically  !
 ! D21   D(2,1,7,9)            -87.9485         calculate D2E/DX2 analytically  !
 ! D22   D(3,1,7,8)           -114.7421         calculate D2E/DX2 analytically  !
 ! D23   D(3,1,7,9)             -2.8168         calculate D2E/DX2 analytically  !
 ! D24   D(10,1,7,8)            24.2186         calculate D2E/DX2 analytically  !
 ! D25   D(10,1,7,9)           136.1439         calculate D2E/DX2 analytically  !
 ! D26   D(2,1,10,11)            1.8232         calculate D2E/DX2 analytically  !
 ! D27   D(2,1,10,12)          122.0266         calculate D2E/DX2 analytically  !
 ! D28   D(2,1,10,13)         -118.0208         calculate D2E/DX2 analytically  !
 ! D29   D(3,1,10,11)          176.639          calculate D2E/DX2 analytically  !
 ! D30   D(3,1,10,12)          -63.1576         calculate D2E/DX2 analytically  !
 ! D31   D(3,1,10,13)           56.795          calculate D2E/DX2 analytically  !
 ! D32   D(4,1,10,11)          -78.3846         calculate D2E/DX2 analytically  !
 ! D33   D(4,1,10,12)           41.8187         calculate D2E/DX2 analytically  !
 ! D34   D(4,1,10,13)          161.7714         calculate D2E/DX2 analytically  !
 ! D35   D(7,1,10,11)          101.9486         calculate D2E/DX2 analytically  !
 ! D36   D(7,1,10,12)         -137.848          calculate D2E/DX2 analytically  !
 ! D37   D(7,1,10,13)          -17.8954         calculate D2E/DX2 analytically  !
 ! D38   D(1,2,14,4)            -5.5016         calculate D2E/DX2 analytically  !
 ! D39   D(1,4,14,2)             6.4074         calculate D2E/DX2 analytically  !
 ! D40   D(5,4,14,2)          -112.7795         calculate D2E/DX2 analytically  !
 ! D41   D(6,4,14,2)           130.3161         calculate D2E/DX2 analytically  !
 --------------------------------------------------------------------------------
 Trust Radius=3.00D-01 FncErr=1.00D-07 GrdErr=1.00D-06
 Number of steps in this run=     93 maximum allowed number of steps=    100.
 Search for a saddle point of order  1.
 GradGradGradGradGradGradGradGradGradGradGradGradGradGradGradGradGradGrad

 Leave Link  103 at Mon Dec 28 12:22:46 2020, MaxMem=  4026531840 cpu:         0.1
 (Enter /home/scicons/Gaussian09.D01/l202.exe)
                          Input orientation:                          
 ---------------------------------------------------------------------
 Center     Atomic      Atomic             Coordinates (Angstroms)
 Number     Number       Type             X           Y           Z
 ---------------------------------------------------------------------
      1         78           0       -0.359244   -0.036891    0.159113
      2         17           0       -2.410686   -1.785177   -0.130762
      3         17           0       -2.242001    1.822900    0.622341
      4          7           0       -0.401118   -0.052558   -1.860738
      5          1           0       -0.711963    0.847187   -2.221889
      6          1           0        0.488748   -0.276281   -2.301303
      7          8           0       -0.480655    0.003062    2.260793
      8          1           0        0.324867    0.317779    2.699427
      9          1           0       -1.140118    0.724679    2.351692
     10          7           0        1.729855   -0.181471    0.139733
     11          1           0        2.025181   -1.136501   -0.046366
     12          1           0        2.138185    0.416288   -0.574730
     13          1           0        2.123223    0.097202    1.035109
     14          1           0       -1.084273   -0.760222   -2.132414
 ---------------------------------------------------------------------
                    Distance matrix (angstroms):
                    1          2          3          4          5
     1  Pt   0.000000
     2  Cl   2.710894   0.000000
     3  Cl   2.686666   3.689694   0.000000
     4  N    2.020346   3.167515   3.615505   0.000000
     5  H    2.564210   3.766671   3.373822   1.018133   0.000000
     6  H    2.613435   3.923612   4.517881   1.017846   1.646267
     7  O    2.105563   3.555609   3.016401   4.122674   4.567328
     8  H    2.654617   4.462695   3.628841   4.632419   5.057138
     9  H    2.448909   3.751839   2.326132   4.346813   4.595211
    10  N    2.094186   4.448496   4.475048   2.925671   3.549348
    11  H    2.633789   4.483840   5.235844   3.217733   4.019935
    12  H    2.642167   5.073045   4.753690   2.884734   3.319962
    13  H    2.635904   5.045685   4.712069   3.844562   4.382784
    14  H    2.509974   2.610846   3.949877   1.020440   1.652387
                    6          7          8          9         10
     6  H    0.000000
     7  O    4.672311   0.000000
     8  H    5.038558   0.969697   0.000000
     9  H    5.030456   0.981777   1.559701   0.000000
    10  N    2.740072   3.069088   2.962309   3.735052   0.000000
    11  H    2.861004   3.591768   3.541945   4.385635   1.016825
    12  H    2.486232   3.881916   3.744053   4.405261   1.017107
    13  H    3.733985   2.879469   2.460222   3.574425   1.016905
    14  H    1.654424   4.499692   5.147276   4.723903   3.662912
                   11         12         13         14
    11  H    0.000000
    12  H    1.644108   0.000000
    13  H    1.643540   1.641226   0.000000
    14  H    3.763228   3.767597   4.588726   0.000000
 Stoichiometry    Cl2H8N2OPt
 Framework group  C1[X(Cl2H8N2OPt)]
 Deg. of freedom    36
 Full point group                 C1      NOp   1
 Largest Abelian subgroup         C1      NOp   1
 Largest concise Abelian subgroup C1      NOp   1
                         Standard orientation:                         
 ---------------------------------------------------------------------
 Center     Atomic      Atomic             Coordinates (Angstroms)
 Number     Number       Type             X           Y           Z
 ---------------------------------------------------------------------
      1         78           0        0.327594   -0.020603   -0.001235
      2         17           0       -1.530266    1.810936   -0.737962
      3         17           0       -1.740862   -1.535725    0.801305
      4          7           0        0.499368    1.183945    1.611637
      5          1           0        0.154720    0.717400    2.448386
      6          1           0        1.446007    1.506748    1.800541
      7          8           0       -0.016598   -1.271569   -1.659551
      8          1           0        0.709604   -1.884563   -1.852374
      9          1           0       -0.739429   -1.816425   -1.279375
     10          7           0        2.411948   -0.163115   -0.145353
     11          1           0        2.803226    0.671099   -0.575378
     12          1           0        2.842102   -0.273582    0.769672
     13          1           0        2.684747   -0.962493   -0.711633
     14          1           0       -0.090553    1.996996    1.432089
 ---------------------------------------------------------------------
 Rotational constants (GHZ):      1.2685360      1.1025409      0.8704380
 Leave Link  202 at Mon Dec 28 12:22:46 2020, MaxMem=  4026531840 cpu:         0.2
 (Enter /home/scicons/Gaussian09.D01/l301.exe)
 Standard basis: def2TZVP (5D, 7F)
 Ernie: Thresh=  0.10000D-02 Tol=  0.10000D-05 Strict=F.
 There are   286 symmetry adapted cartesian basis functions of A   symmetry.
 There are   255 symmetry adapted basis functions of A   symmetry.
   255 basis functions,   430 primitive gaussians,   286 cartesian basis functions
    41 alpha electrons       41 beta electrons
       nuclear repulsion energy       517.0666639659 Hartrees.
 IExCor=  402 DFT=T Ex+Corr=B3LYP ExCW=0 ScaHFX=  0.200000
 ScaDFX=  0.800000  0.720000  1.000000  0.810000 ScalE2=  1.000000  1.000000
 IRadAn=      0 IRanWt=     -1 IRanGd=            0 ICorTp=0 IEmpDi=141
 NAtoms=   14 NActive=   14 NUniq=   14 SFac= 1.00D+00 NAtFMM=   60 NAOKFM=F Big=F
 Integral buffers will be    131072 words long.
 Raffenetti 2 integral format.
 Two-electron integral symmetry is turned on.
 R6Disp:  Grimme-D3(BJ) Dispersion energy=       -0.0273359184 Hartrees.
 Nuclear repulsion after empirical dispersion term =      517.0393280475 Hartrees.
 Leave Link  301 at Mon Dec 28 12:22:47 2020, MaxMem=  4026531840 cpu:         1.4
 (Enter /home/scicons/Gaussian09.D01/l302.exe)
 NPDir=0 NMtPBC=     1 NCelOv=     1 NCel=       1 NClECP=     1 NCelD=      1
         NCelK=      1 NCelE2=     1 NClLst=     1 CellRange=     0.0.
 One-electron integrals computed using PRISM.
   1 Symmetry operations used in ECPInt.
 ECPInt:  NShTT=    5565 NPrTT=   17197 LenC2=    5349 LenP2D=   12563.
 LDataN:  DoStor=T MaxTD1= 8 Len=  415
 NBasis=   255 RedAO= T EigKep=  2.05D-03  NBF=   255
 NBsUse=   255 1.00D-06 EigRej= -1.00D+00 NBFU=   255
 Precomputing XC quadrature grid using
 IXCGrd= 4 IRadAn=           0 IRanWt=          -1 IRanGd=           0 AccXCQ= 0.00D+00.
 Defaulting to unpruned grid for atomic number  78.
 Generated NRdTot=       0 NPtTot=           0 NUsed=           0 NTot=          32
 NSgBfM=   284   284   284   284   284 MxSgAt=    14 MxSgA2=    14.
 Leave Link  302 at Mon Dec 28 12:22:48 2020, MaxMem=  4026531840 cpu:        22.8
 (Enter /home/scicons/Gaussian09.D01/l303.exe)
 DipDrv:  MaxL=1.
 Leave Link  303 at Mon Dec 28 12:22:48 2020, MaxMem=  4026531840 cpu:         0.6
 (Enter /home/scicons/Gaussian09.D01/l401.exe)
 ExpMin= 4.92D-02 ExpMax= 6.95D+04 ExpMxC= 2.37D+03 IAcc=2 IRadAn=         4 AccDes= 0.00D+00
 Harris functional with IExCor=  402 and IRadAn=       4 diagonalized for initial guess.
 HarFok:  IExCor=  402 AccDes= 0.00D+00 IRadAn=         4 IDoV= 1 UseB2=F ITyADJ=14
 ICtDFT=  3500011 ScaDFX=  1.000000  1.000000  1.000000  1.000000
 Defaulting to unpruned grid for atomic number  78.
 Defaulting to unpruned grid for atomic number  78.
 Defaulting to unpruned grid for atomic number  78.
 Defaulting to unpruned grid for atomic number  78.
 Defaulting to unpruned grid for atomic number  78.
 Defaulting to unpruned grid for atomic number  78.
 Defaulting to unpruned grid for atomic number  78.
 Defaulting to unpruned grid for atomic number  78.
 Defaulting to unpruned grid for atomic number  78.
 Defaulting to unpruned grid for atomic number  78.
 Defaulting to unpruned grid for atomic number  78.
 Defaulting to unpruned grid for atomic number  78.
 Defaulting to unpruned grid for atomic number  78.
 Defaulting to unpruned grid for atomic number  78.
 Defaulting to unpruned grid for atomic number  78.
 Defaulting to unpruned grid for atomic number  78.
 Defaulting to unpruned grid for atomic number  78.
 Defaulting to unpruned grid for atomic number  78.
 Defaulting to unpruned grid for atomic number  78.
 Defaulting to unpruned grid for atomic number  78.
 FoFCou: FMM=F IPFlag=           0 FMFlag=      100000 FMFlg1=           0
         NFxFlg=           0 DoJE=T BraDBF=F KetDBF=T FulRan=T
         wScrn=  0.000000 ICntrl=     500 IOpCl=  0 I1Cent=   200000004 NGrid=           0
         NMat0=    1 NMatS0=      1 NMatT0=    0 NMatD0=    1 NMtDS0=    0 NMtDT0=    0
 Petite list used in FoFCou.
 Harris En= -1229.20059539242    
 JPrj=0 DoOrth=F DoCkMO=F.
 Leave Link  401 at Mon Dec 28 12:22:49 2020, MaxMem=  4026531840 cpu:        18.1
 (Enter /home/scicons/Gaussian09.D01/l502.exe)
 Closed shell SCF:
 Using DIIS extrapolation, IDIIS=  1040.
 Integral symmetry usage will be decided dynamically.
 Keep R1 ints in memory in canonical form, NReq=544792690.
 IVT=      271762 IEndB=      271762 NGot=  4026531840 MDV=  3493558959
 LenX=  3493558959 LenY=  3493476722
 Requested convergence on RMS density matrix=1.00D-08 within 128 cycles.
 Requested convergence on MAX density matrix=1.00D-06.
 Requested convergence on             energy=1.00D-06.
 No special actions if energy rises.
 FoFCou: FMM=F IPFlag=           0 FMFlag=           0 FMFlg1=           0
         NFxFlg=           0 DoJE=F BraDBF=F KetDBF=F FulRan=T
         wScrn=  0.000000 ICntrl=     600 IOpCl=  0 I1Cent=           0 NGrid=           0
         NMat0=    1 NMatS0=  32640 NMatT0=    0 NMatD0=    1 NMtDS0=    0 NMtDT0=    0
 Symmetry not used in FoFCou.

 Cycle   1  Pass 1  IDiag  1:
 Defaulting to unpruned grid for atomic number  78.
 Defaulting to unpruned grid for atomic number  78.
 Defaulting to unpruned grid for atomic number  78.
 Defaulting to unpruned grid for atomic number  78.
 Defaulting to unpruned grid for atomic number  78.
 Defaulting to unpruned grid for atomic number  78.
 Defaulting to unpruned grid for atomic number  78.
 Defaulting to unpruned grid for atomic number  78.
 Defaulting to unpruned grid for atomic number  78.
 Defaulting to unpruned grid for atomic number  78.
 Defaulting to unpruned grid for atomic number  78.
 Defaulting to unpruned grid for atomic number  78.
 Defaulting to unpruned grid for atomic number  78.
 Defaulting to unpruned grid for atomic number  78.
 Defaulting to unpruned grid for atomic number  78.
 Defaulting to unpruned grid for atomic number  78.
 Defaulting to unpruned grid for atomic number  78.
 Defaulting to unpruned grid for atomic number  78.
 Defaulting to unpruned grid for atomic number  78.
 Defaulting to unpruned grid for atomic number  78.
 E= -1229.09259404461    
 DIIS: error= 3.75D-02 at cycle   1 NSaved=   1.
 NSaved= 1 IEnMin= 1 EnMin= -1229.09259404461     IErMin= 1 ErrMin= 3.75D-02
 ErrMax= 3.75D-02  0.00D+00 EMaxC= 1.00D-01 BMatC= 6.93D-01 BMatP= 6.93D-01
 IDIUse=3 WtCom= 6.25D-01 WtEn= 3.75D-01
 Coeff-Com:  0.100D+01
 Coeff-En:   0.100D+01
 Coeff:      0.100D+01
 Gap=     0.255 Goal=   None    Shift=    0.000
 GapD=    0.255 DampG=1.000 DampE=0.250 DampFc=0.2500 IDamp=-1.
 Damping current iteration by 2.50D-01
 RMSDP=7.86D-03 MaxDP=5.44D-01              OVMax= 5.46D-01

 Cycle   2  Pass 1  IDiag  1:
 E= -1229.23560468113     Delta-E=       -0.143010636511 Rises=F Damp=T
 DIIS: error= 1.49D-02 at cycle   2 NSaved=   2.
 NSaved= 2 IEnMin= 2 EnMin= -1229.23560468113     IErMin= 2 ErrMin= 1.49D-02
 ErrMax= 1.49D-02  0.00D+00 EMaxC= 1.00D-01 BMatC= 1.06D-01 BMatP= 6.93D-01
 IDIUse=3 WtCom= 8.51D-01 WtEn= 1.49D-01
 Coeff-Com: -0.322D+00 0.132D+01
 Coeff-En:   0.203D+00 0.797D+00
 Coeff:     -0.243D+00 0.124D+01
 Gap=     0.025 Goal=   None    Shift=    0.000
 RMSDP=2.26D-03 MaxDP=1.59D-01 DE=-1.43D-01 OVMax= 7.56D-01

 Cycle   3  Pass 1  IDiag  1:
 E= -1229.39215707050     Delta-E=       -0.156552389374 Rises=F Damp=F
 DIIS: error= 1.63D-02 at cycle   3 NSaved=   3.
 NSaved= 3 IEnMin= 3 EnMin= -1229.39215707050     IErMin= 2 ErrMin= 1.49D-02
 ErrMax= 1.63D-02  0.00D+00 EMaxC= 1.00D-01 BMatC= 1.71D-01 BMatP= 1.06D-01
 IDIUse=2 WtCom= 0.00D+00 WtEn= 1.00D+00
 Coeff-En:   0.000D+00 0.176D+00 0.824D+00
 Coeff:      0.000D+00 0.176D+00 0.824D+00
 Gap=     0.129 Goal=   None    Shift=    0.000
 RMSDP=6.67D-03 MaxDP=2.21D-01 DE=-1.57D-01 OVMax= 8.51D-01

 Cycle   4  Pass 1  IDiag  1:
 E= -1227.49525463742     Delta-E=        1.896902433079 Rises=F Damp=F
 DIIS: error= 4.01D-02 at cycle   4 NSaved=   4.
 NSaved= 4 IEnMin= 3 EnMin= -1229.39215707050     IErMin= 2 ErrMin= 1.49D-02
 ErrMax= 4.01D-02  0.00D+00 EMaxC= 1.00D-01 BMatC= 1.40D+00 BMatP= 1.06D-01
 IDIUse=2 WtCom= 0.00D+00 WtEn= 1.00D+00
 EnCoef did     2 forward-backward iterations
 Coeff-En:   0.299D-02 0.000D+00 0.859D+00 0.138D+00
 Coeff:      0.299D-02 0.000D+00 0.859D+00 0.138D+00
 Gap=     0.023 Goal=   None    Shift=    0.000
 RMSDP=5.61D-03 MaxDP=2.03D-01 DE= 1.90D+00 OVMax= 9.72D-01

 Cycle   5  Pass 1  IDiag  1:
 E= -1229.48239113276     Delta-E=       -1.987136495340 Rises=F Damp=F
 DIIS: error= 1.44D-02 at cycle   5 NSaved=   5.
 NSaved= 5 IEnMin= 5 EnMin= -1229.48239113276     IErMin= 5 ErrMin= 1.44D-02
 ErrMax= 1.44D-02  0.00D+00 EMaxC= 1.00D-01 BMatC= 1.02D-01 BMatP= 1.06D-01
 IDIUse=3 WtCom= 8.56D-01 WtEn= 1.44D-01
 Coeff-Com: -0.126D+00 0.243D+00 0.413D+00-0.111D-01 0.481D+00
 Coeff-En:   0.000D+00 0.000D+00 0.353D+00 0.000D+00 0.647D+00
 Coeff:     -0.108D+00 0.208D+00 0.405D+00-0.952D-02 0.505D+00
 Gap=     0.117 Goal=   None    Shift=    0.000
 RMSDP=1.08D-03 MaxDP=3.87D-02 DE=-1.99D+00 OVMax= 1.07D-01

 Cycle   6  Pass 1  IDiag  1:
 E= -1229.56486651247     Delta-E=       -0.082475379709 Rises=F Damp=F
 DIIS: error= 1.89D-03 at cycle   6 NSaved=   6.
 NSaved= 6 IEnMin= 6 EnMin= -1229.56486651247     IErMin= 6 ErrMin= 1.89D-03
 ErrMax= 1.89D-03  0.00D+00 EMaxC= 1.00D-01 BMatC= 1.99D-03 BMatP= 1.02D-01
 IDIUse=3 WtCom= 9.81D-01 WtEn= 1.89D-02
 Coeff-Com: -0.558D-01 0.838D-01 0.104D+00-0.607D-02 0.194D+00 0.680D+00
 Coeff-En:   0.000D+00 0.000D+00 0.000D+00 0.000D+00 0.000D+00 0.100D+01
 Coeff:     -0.547D-01 0.822D-01 0.102D+00-0.596D-02 0.190D+00 0.686D+00
 Gap=     0.102 Goal=   None    Shift=    0.000
 RMSDP=2.12D-04 MaxDP=7.30D-03 DE=-8.25D-02 OVMax= 1.96D-02

 Cycle   7  Pass 1  IDiag  1:
 E= -1229.56653029434     Delta-E=       -0.001663781866 Rises=F Damp=F
 DIIS: error= 8.65D-04 at cycle   7 NSaved=   7.
 NSaved= 7 IEnMin= 7 EnMin= -1229.56653029434     IErMin= 7 ErrMin= 8.65D-04
 ErrMax= 8.65D-04  0.00D+00 EMaxC= 1.00D-01 BMatC= 4.07D-04 BMatP= 1.99D-03
 IDIUse=3 WtCom= 9.91D-01 WtEn= 8.65D-03
 Coeff-Com: -0.131D-01 0.153D-01-0.105D-01-0.135D-03 0.236D-01 0.408D+00
 Coeff-Com:  0.577D+00
 Coeff-En:   0.000D+00 0.000D+00 0.000D+00 0.000D+00 0.000D+00 0.932D-01
 Coeff-En:   0.907D+00
 Coeff:     -0.130D-01 0.151D-01-0.105D-01-0.134D-03 0.234D-01 0.405D+00
 Coeff:      0.580D+00
 Gap=     0.103 Goal=   None    Shift=    0.000
 RMSDP=1.04D-04 MaxDP=2.98D-03 DE=-1.66D-03 OVMax= 1.33D-02

 Cycle   8  Pass 1  IDiag  1:
 E= -1229.56692061755     Delta-E=       -0.000390323212 Rises=F Damp=F
 DIIS: error= 1.46D-04 at cycle   8 NSaved=   8.
 NSaved= 8 IEnMin= 8 EnMin= -1229.56692061755     IErMin= 8 ErrMin= 1.46D-04
 ErrMax= 1.46D-04  0.00D+00 EMaxC= 1.00D-01 BMatC= 1.38D-05 BMatP= 4.07D-04
 IDIUse=3 WtCom= 9.99D-01 WtEn= 1.46D-03
 Coeff-Com: -0.284D-02 0.315D-02-0.724D-02 0.282D-03 0.132D-02 0.128D+00
 Coeff-Com:  0.250D+00 0.628D+00
 Coeff-En:   0.000D+00 0.000D+00 0.000D+00 0.000D+00 0.000D+00 0.000D+00
 Coeff-En:   0.000D+00 0.100D+01
 Coeff:     -0.283D-02 0.314D-02-0.723D-02 0.281D-03 0.132D-02 0.128D+00
 Coeff:      0.249D+00 0.628D+00
 Gap=     0.103 Goal=   None    Shift=    0.000
 RMSDP=2.27D-05 MaxDP=7.65D-04 DE=-3.90D-04 OVMax= 2.32D-03

 Cycle   9  Pass 1  IDiag  1:
 E= -1229.56693375676     Delta-E=       -0.000013139211 Rises=F Damp=F
 DIIS: error= 5.61D-05 at cycle   9 NSaved=   9.
 NSaved= 9 IEnMin= 9 EnMin= -1229.56693375676     IErMin= 9 ErrMin= 5.61D-05
 ErrMax= 5.61D-05  0.00D+00 EMaxC= 1.00D-01 BMatC= 2.21D-06 BMatP= 1.38D-05
 IDIUse=1 WtCom= 1.00D+00 WtEn= 0.00D+00
 Coeff-Com:  0.292D-04 0.354D-03-0.108D-02-0.345D-04-0.173D-02-0.282D-02
 Coeff-Com:  0.251D-01 0.299D+00 0.682D+00
 Coeff:      0.292D-04 0.354D-03-0.108D-02-0.345D-04-0.173D-02-0.282D-02
 Coeff:      0.251D-01 0.299D+00 0.682D+00
 Gap=     0.103 Goal=   None    Shift=    0.000
 RMSDP=8.08D-06 MaxDP=2.65D-04 DE=-1.31D-05 OVMax= 8.38D-04

 Cycle  10  Pass 1  IDiag  1:
 E= -1229.56693587959     Delta-E=       -0.000002122832 Rises=F Damp=F
 DIIS: error= 2.50D-05 at cycle  10 NSaved=  10.
 NSaved=10 IEnMin=10 EnMin= -1229.56693587959     IErMin=10 ErrMin= 2.50D-05
 ErrMax= 2.50D-05  0.00D+00 EMaxC= 1.00D-01 BMatC= 2.32D-07 BMatP= 2.21D-06
 IDIUse=1 WtCom= 1.00D+00 WtEn= 0.00D+00
 Coeff-Com:  0.209D-03-0.450D-04-0.120D-03-0.393D-04-0.764D-03-0.865D-02
 Coeff-Com: -0.886D-02 0.724D-01 0.278D+00 0.668D+00
 Coeff:      0.209D-03-0.450D-04-0.120D-03-0.393D-04-0.764D-03-0.865D-02
 Coeff:     -0.886D-02 0.724D-01 0.278D+00 0.668D+00
 Gap=     0.103 Goal=   None    Shift=    0.000
 RMSDP=2.64D-06 MaxDP=1.12D-04 DE=-2.12D-06 OVMax= 3.35D-04

 Cycle  11  Pass 1  IDiag  1:
 E= -1229.56693605532     Delta-E=       -0.000000175725 Rises=F Damp=F
 DIIS: error= 1.37D-05 at cycle  11 NSaved=  11.
 NSaved=11 IEnMin=11 EnMin= -1229.56693605532     IErMin=11 ErrMin= 1.37D-05
 ErrMax= 1.37D-05  0.00D+00 EMaxC= 1.00D-01 BMatC= 8.90D-08 BMatP= 2.32D-07
 IDIUse=1 WtCom= 1.00D+00 WtEn= 0.00D+00
 Coeff-Com:  0.176D-03-0.207D-03-0.291D-04-0.783D-06-0.220D-03-0.259D-02
 Coeff-Com: -0.771D-02-0.141D-01 0.307D-01 0.401D+00 0.593D+00
 Coeff:      0.176D-03-0.207D-03-0.291D-04-0.783D-06-0.220D-03-0.259D-02
 Coeff:     -0.771D-02-0.141D-01 0.307D-01 0.401D+00 0.593D+00
 Gap=     0.103 Goal=   None    Shift=    0.000
 RMSDP=1.39D-06 MaxDP=5.22D-05 DE=-1.76D-07 OVMax= 1.65D-04

 Cycle  12  Pass 1  IDiag  1:
 E= -1229.56693613190     Delta-E=       -0.000000076582 Rises=F Damp=F
 DIIS: error= 2.86D-06 at cycle  12 NSaved=  12.
 NSaved=12 IEnMin=12 EnMin= -1229.56693613190     IErMin=12 ErrMin= 2.86D-06
 ErrMax= 2.86D-06  0.00D+00 EMaxC= 1.00D-01 BMatC= 8.91D-09 BMatP= 8.90D-08
 IDIUse=1 WtCom= 1.00D+00 WtEn= 0.00D+00
 Coeff-Com:  0.799D-04-0.135D-03 0.317D-04 0.948D-05-0.547D-04 0.197D-03
 Coeff-Com: -0.159D-02-0.178D-01-0.222D-01 0.742D-01 0.248D+00 0.719D+00
 Coeff:      0.799D-04-0.135D-03 0.317D-04 0.948D-05-0.547D-04 0.197D-03
 Coeff:     -0.159D-02-0.178D-01-0.222D-01 0.742D-01 0.248D+00 0.719D+00
 Gap=     0.103 Goal=   None    Shift=    0.000
 RMSDP=6.37D-07 MaxDP=2.46D-05 DE=-7.66D-08 OVMax= 7.40D-05

 Cycle  13  Pass 1  IDiag  1:
 E= -1229.56693614288     Delta-E=       -0.000000010984 Rises=F Damp=F
 DIIS: error= 1.33D-06 at cycle  13 NSaved=  13.
 NSaved=13 IEnMin=13 EnMin= -1229.56693614288     IErMin=13 ErrMin= 1.33D-06
 ErrMax= 1.33D-06  0.00D+00 EMaxC= 1.00D-01 BMatC= 1.35D-09 BMatP= 8.91D-09
 IDIUse=1 WtCom= 1.00D+00 WtEn= 0.00D+00
 Coeff-Com:  0.103D-04-0.104D-04 0.199D-04 0.398D-06-0.192D-04 0.583D-03
 Coeff-Com:  0.614D-03-0.820D-02-0.174D-01-0.305D-01 0.329D-01 0.332D+00
 Coeff-Com:  0.690D+00
 Coeff:      0.103D-04-0.104D-04 0.199D-04 0.398D-06-0.192D-04 0.583D-03
 Coeff:      0.614D-03-0.820D-02-0.174D-01-0.305D-01 0.329D-01 0.332D+00
 Coeff:      0.690D+00
 Gap=     0.103 Goal=   None    Shift=    0.000
 RMSDP=2.64D-07 MaxDP=1.27D-05 DE=-1.10D-08 OVMax= 3.11D-05

 Cycle  14  Pass 1  IDiag  1:
 E= -1229.56693614465     Delta-E=       -0.000000001772 Rises=F Damp=F
 DIIS: error= 2.11D-07 at cycle  14 NSaved=  14.
 NSaved=14 IEnMin=14 EnMin= -1229.56693614465     IErMin=14 ErrMin= 2.11D-07
 ErrMax= 2.11D-07  0.00D+00 EMaxC= 1.00D-01 BMatC= 4.37D-11 BMatP= 1.35D-09
 IDIUse=1 WtCom= 1.00D+00 WtEn= 0.00D+00
 Coeff-Com: -0.388D-05 0.643D-05 0.149D-05-0.354D-06-0.214D-06 0.199D-03
 Coeff-Com:  0.239D-03-0.174D-02-0.444D-02-0.115D-01-0.196D-02 0.460D-01
 Coeff-Com:  0.212D+00 0.761D+00
 Coeff:     -0.388D-05 0.643D-05 0.149D-05-0.354D-06-0.214D-06 0.199D-03
 Coeff:      0.239D-03-0.174D-02-0.444D-02-0.115D-01-0.196D-02 0.460D-01
 Coeff:      0.212D+00 0.761D+00
 Gap=     0.103 Goal=   None    Shift=    0.000
 RMSDP=5.54D-08 MaxDP=2.24D-06 DE=-1.77D-09 OVMax= 6.49D-06

 Cycle  15  Pass 1  IDiag  1:
 E= -1229.56693614471     Delta-E=       -0.000000000055 Rises=F Damp=F
 DIIS: error= 1.80D-07 at cycle  15 NSaved=  15.
 NSaved=15 IEnMin=15 EnMin= -1229.56693614471     IErMin=15 ErrMin= 1.80D-07
 ErrMax= 1.80D-07  0.00D+00 EMaxC= 1.00D-01 BMatC= 2.08D-11 BMatP= 4.37D-11
 IDIUse=1 WtCom= 1.00D+00 WtEn= 0.00D+00
 Coeff-Com: -0.456D-05 0.669D-05-0.436D-06-0.321D-06 0.218D-05 0.331D-05
 Coeff-Com:  0.282D-04 0.224D-03-0.114D-03-0.397D-02-0.848D-02-0.206D-01
 Coeff-Com:  0.347D-01 0.446D+00 0.552D+00
 Coeff:     -0.456D-05 0.669D-05-0.436D-06-0.321D-06 0.218D-05 0.331D-05
 Coeff:      0.282D-04 0.224D-03-0.114D-03-0.397D-02-0.848D-02-0.206D-01
 Coeff:      0.347D-01 0.446D+00 0.552D+00
 Gap=     0.103 Goal=   None    Shift=    0.000
 RMSDP=2.27D-08 MaxDP=1.01D-06 DE=-5.46D-11 OVMax= 2.15D-06

 Cycle  16  Pass 1  IDiag  1:
 E= -1229.56693614473     Delta-E=       -0.000000000021 Rises=F Damp=F
 DIIS: error= 5.09D-08 at cycle  16 NSaved=  16.
 NSaved=16 IEnMin=16 EnMin= -1229.56693614473     IErMin=16 ErrMin= 5.09D-08
 ErrMax= 5.09D-08  0.00D+00 EMaxC= 1.00D-01 BMatC= 2.11D-12 BMatP= 2.08D-11
 IDIUse=1 WtCom= 1.00D+00 WtEn= 0.00D+00
 Coeff-Com: -0.158D-05 0.212D-05-0.558D-06-0.925D-07 0.107D-05-0.198D-04
 Coeff-Com: -0.236D-04 0.157D-03 0.215D-03-0.477D-03-0.235D-02-0.664D-02
 Coeff-Com:  0.877D-03 0.894D-01 0.203D+00 0.716D+00
 Coeff:     -0.158D-05 0.212D-05-0.558D-06-0.925D-07 0.107D-05-0.198D-04
 Coeff:     -0.236D-04 0.157D-03 0.215D-03-0.477D-03-0.235D-02-0.664D-02
 Coeff:      0.877D-03 0.894D-01 0.203D+00 0.716D+00
 Gap=     0.103 Goal=   None    Shift=    0.000
 RMSDP=7.88D-09 MaxDP=2.49D-07 DE=-2.14D-11 OVMax= 7.57D-07

 SCF Done:  E(RB3LYP) =  -1229.56693614     A.U. after   16 cycles
            NFock= 16  Conv=0.79D-08     -V/T= 2.0707
 KE= 1.148381656753D+03 PE=-3.919186569432D+03 EE= 1.024198648487D+03
 Leave Link  502 at Mon Dec 28 12:23:50 2020, MaxMem=  4026531840 cpu:       269.9
 (Enter /home/scicons/Gaussian09.D01/l801.exe)
 DoSCS=F DFT=T ScalE2(SS,OS)=  1.000000  1.000000
 Range of M.O.s used for correlation:     1   255
 NBasis=   255 NAE=    41 NBE=    41 NFC=     0 NFV=     0
 NROrb=    255 NOA=    41 NOB=    41 NVA=   214 NVB=   214
 Leave Link  801 at Mon Dec 28 12:23:51 2020, MaxMem=  4026531840 cpu:         0.6
 (Enter /home/scicons/Gaussian09.D01/l1101.exe)
 Using compressed storage, NAtomX=    14.
 Will process     15 centers per pass.
   1 Symmetry operations used in ECPInt.
 ECPInt:  NShTT=    5565 NPrTT=   17197 LenC2=    5349 LenP2D=   12563.
 LDataN:  DoStor=T MaxTD1= 9 Len=  602
 R6Disp: Adding Grimme-D3(BJ) dispersion energy 1st derivatives to the gradient.
 Leave Link 1101 at Mon Dec 28 12:23:54 2020, MaxMem=  4026531840 cpu:        62.8
 (Enter /home/scicons/Gaussian09.D01/l1102.exe)
 Symmetrizing basis deriv contribution to polar:
 IMax=3 JMax=2 DiffMx= 0.00D+00
 Leave Link 1102 at Mon Dec 28 12:23:54 2020, MaxMem=  4026531840 cpu:         1.5
 (Enter /home/scicons/Gaussian09.D01/l1110.exe)
 Forming Gx(P) for the SCF density, NAtomX=    14.
 Integral derivatives from FoFJK, PRISM(SPDF).
 Do as many integral derivatives as possible in FoFJK.
 G2DrvN: MDV=    4026531624.
 G2DrvN: will do    15 centers at a time, making    1 passes.
 Calling FoFCou, ICntrl=  3107 FMM=F I1Cent=   0 AccDes= 0.00D+00.
 FoFJK:  IHMeth= 1 ICntrl=    3107 DoSepK=F KAlg= 0 I1Cent=   0 FoldK=F
 IRaf=         0 NMat=   1 IRICut=       1 DoRegI=T DoRafI=F ISym2E= 0.
 FoFCou: FMM=F IPFlag=           0 FMFlag=      100000 FMFlg1=           0
         NFxFlg=           0 DoJE=F BraDBF=F KetDBF=F FulRan=T
         wScrn=  0.000000 ICntrl=    3107 IOpCl=  0 I1Cent=           0 NGrid=           0
         NMat0=    1 NMatS0=      1 NMatT0=    0 NMatD0=    1 NMtDS0=    0 NMtDT0=    0
 Symmetry not used in FoFCou.
 Defaulting to unpruned grid for atomic number  78.
 Defaulting to unpruned grid for atomic number  78.
 Defaulting to unpruned grid for atomic number  78.
 Defaulting to unpruned grid for atomic number  78.
 Defaulting to unpruned grid for atomic number  78.
 Defaulting to unpruned grid for atomic number  78.
 Defaulting to unpruned grid for atomic number  78.
 Defaulting to unpruned grid for atomic number  78.
 Defaulting to unpruned grid for atomic number  78.
 Defaulting to unpruned grid for atomic number  78.
 Defaulting to unpruned grid for atomic number  78.
 Defaulting to unpruned grid for atomic number  78.
 Defaulting to unpruned grid for atomic number  78.
 Defaulting to unpruned grid for atomic number  78.
 Defaulting to unpruned grid for atomic number  78.
 Defaulting to unpruned grid for atomic number  78.
 Defaulting to unpruned grid for atomic number  78.
 Defaulting to unpruned grid for atomic number  78.
 Defaulting to unpruned grid for atomic number  78.
 Defaulting to unpruned grid for atomic number  78.
 End of G2Drv F.D. properties file   721 does not exist.
 End of G2Drv F.D. properties file   722 does not exist.
 End of G2Drv F.D. properties file   788 does not exist.
 Leave Link 1110 at Mon Dec 28 12:24:17 2020, MaxMem=  4026531840 cpu:       464.0
 (Enter /home/scicons/Gaussian09.D01/l1002.exe)
 Minotr:  Closed shell wavefunction.
          IDoAtm=11111111111111
          Direct CPHF calculation.
          Differentiating once with respect to electric field.
                with respect to dipole field.
          Differentiating once with respect to nuclear coordinates.
          Requested convergence is 1.0D-08 RMS, and 1.0D-07 maximum.
          Secondary convergence is 1.0D-12 RMS, and 1.0D-12 maximum.
          NewPWx=T KeepS1=F KeepF1=F KeepIn=T MapXYZ=F SortEE=F KeepMc=T.
          MDV=    4026531441 using IRadAn=       2.
 Defaulting to unpruned grid for atomic number  78.
 Generate precomputed XC quadrature information.
 Keep R1 ints in memory in canonical form, NReq=544526104.
 FoFCou: FMM=F IPFlag=           0 FMFlag=           0 FMFlg1=           0
         NFxFlg=           0 DoJE=F BraDBF=F KetDBF=F FulRan=T
         wScrn=  0.000000 ICntrl=     600 IOpCl=  0 I1Cent=           0 NGrid=           0
         NMat0=    1 NMatS0=  32640 NMatT0=    0 NMatD0=    1 NMtDS0=    0 NMtDT0=    0
 Symmetry not used in FoFCou.
          Solving linear equations simultaneously, MaxMat=       0.
 Defaulting to unpruned grid for atomic number  78.
 Defaulting to unpruned grid for atomic number  78.
 Defaulting to unpruned grid for atomic number  78.
 Defaulting to unpruned grid for atomic number  78.
 Defaulting to unpruned grid for atomic number  78.
 Defaulting to unpruned grid for atomic number  78.
 Defaulting to unpruned grid for atomic number  78.
 Defaulting to unpruned grid for atomic number  78.
 Defaulting to unpruned grid for atomic number  78.
 Defaulting to unpruned grid for atomic number  78.
 Defaulting to unpruned grid for atomic number  78.
 Defaulting to unpruned grid for atomic number  78.
 Defaulting to unpruned grid for atomic number  78.
 Defaulting to unpruned grid for atomic number  78.
 Defaulting to unpruned grid for atomic number  78.
 Defaulting to unpruned grid for atomic number  78.
 Defaulting to unpruned grid for atomic number  78.
 Defaulting to unpruned grid for atomic number  78.
 Defaulting to unpruned grid for atomic number  78.
 Defaulting to unpruned grid for atomic number  78.
          There are    45 degrees of freedom in the 1st order CPHF.  IDoFFX=6 NUNeed=     3.
     42 vectors produced by pass  0 Test12= 1.95D-14 2.22D-09 XBig12= 1.81D+02 9.94D+00.
 AX will form    42 AO Fock derivatives at one time.
     42 vectors produced by pass  1 Test12= 1.95D-14 2.22D-09 XBig12= 2.52D+01 9.17D-01.
     42 vectors produced by pass  2 Test12= 1.95D-14 2.22D-09 XBig12= 4.15D-01 1.25D-01.
     42 vectors produced by pass  3 Test12= 1.95D-14 2.22D-09 XBig12= 4.68D-03 1.19D-02.
     42 vectors produced by pass  4 Test12= 1.95D-14 2.22D-09 XBig12= 3.84D-05 7.77D-04.
     42 vectors produced by pass  5 Test12= 1.95D-14 2.22D-09 XBig12= 2.82D-07 8.76D-05.
     17 vectors produced by pass  6 Test12= 1.95D-14 2.22D-09 XBig12= 6.07D-10 2.99D-06.
      3 vectors produced by pass  7 Test12= 1.95D-14 2.22D-09 XBig12= 8.57D-13 1.30D-07.
      3 vectors produced by pass  8 Test12= 1.95D-14 2.22D-09 XBig12= 1.43D-15 4.90D-09.
 InvSVY:  IOpt=1 It=  1 EMax= 8.88D-15
 Solved reduced A of dimension   275 with    45 vectors.
 FullF1:  Do perturbations    1 to     3.
 Isotropic polarizability for W=    0.000000      103.41 Bohr**3.
 End of Minotr F.D. properties file   721 does not exist.
 End of Minotr F.D. properties file   722 does not exist.
 End of Minotr F.D. properties file   788 does not exist.
 Leave Link 1002 at Mon Dec 28 12:25:23 2020, MaxMem=  4026531840 cpu:      1295.4
 (Enter /home/scicons/Gaussian09.D01/l601.exe)
 Copying SCF densities to generalized density rwf, IOpCl= 0 IROHF=0.

 **********************************************************************

            Population analysis using the SCF density.

 **********************************************************************

 Orbital symmetries:
       Occupied  (A) (A) (A) (A) (A) (A) (A) (A) (A) (A) (A) (A)
                 (A) (A) (A) (A) (A) (A) (A) (A) (A) (A) (A) (A)
                 (A) (A) (A) (A) (A) (A) (A) (A) (A) (A) (A) (A)
                 (A) (A) (A) (A) (A)
       Virtual   (A) (A) (A) (A) (A) (A) (A) (A) (A) (A) (A) (A)
                 (A) (A) (A) (A) (A) (A) (A) (A) (A) (A) (A) (A)
                 (A) (A) (A) (A) (A) (A) (A) (A) (A) (A) (A) (A)
                 (A) (A) (A) (A) (A) (A) (A) (A) (A) (A) (A) (A)
                 (A) (A) (A) (A) (A) (A) (A) (A) (A) (A) (A) (A)
                 (A) (A) (A) (A) (A) (A) (A) (A) (A) (A) (A) (A)
                 (A) (A) (A) (A) (A) (A) (A) (A) (A) (A) (A) (A)
                 (A) (A) (A) (A) (A) (A) (A) (A) (A) (A) (A) (A)
                 (A) (A) (A) (A) (A) (A) (A) (A) (A) (A) (A) (A)
                 (A) (A) (A) (A) (A) (A) (A) (A) (A) (A) (A) (A)
                 (A) (A) (A) (A) (A) (A) (A) (A) (A) (A) (A) (A)
                 (A) (A) (A) (A) (A) (A) (A) (A) (A) (A) (A) (A)
                 (A) (A) (A) (A) (A) (A) (A) (A) (A) (A) (A) (A)
                 (A) (A) (A) (A) (A) (A) (A) (A) (A) (A) (A) (A)
                 (A) (A) (A) (A) (A) (A) (A) (A) (A) (A) (A) (A)
                 (A) (A) (A) (A) (A) (A) (A) (A) (A) (A) (A) (A)
                 (A) (A) (A) (A) (A) (A) (A) (A) (A) (A) (A) (A)
                 (A) (A) (A) (A) (A) (A) (A) (A) (A) (A)
 The electronic state is 1-A.
 Alpha  occ. eigenvalues -- -101.41241-101.39843 -19.21668 -14.43211 -14.41695
 Alpha  occ. eigenvalues --   -9.34375  -9.32953  -7.10167  -7.09930  -7.09794
 Alpha  occ. eigenvalues --   -7.08790  -7.08456  -7.08385  -3.94322  -2.20979
 Alpha  occ. eigenvalues --   -2.18688  -2.15653  -1.09312  -0.98019  -0.96136
 Alpha  occ. eigenvalues --   -0.69711  -0.67979  -0.61059  -0.59150  -0.58520
 Alpha  occ. eigenvalues --   -0.56716  -0.56252  -0.51805  -0.47013  -0.45610
 Alpha  occ. eigenvalues --   -0.41182  -0.30671  -0.29646  -0.28496  -0.27475
 Alpha  occ. eigenvalues --   -0.25832  -0.23603  -0.21677  -0.21598  -0.20155
 Alpha  occ. eigenvalues --   -0.18990
 Alpha virt. eigenvalues --   -0.08646  -0.06539  -0.02184   0.01317   0.02710
 Alpha virt. eigenvalues --    0.04353   0.04939   0.07361   0.08735   0.09824
 Alpha virt. eigenvalues --    0.10670   0.13201   0.16634   0.18176   0.23567
 Alpha virt. eigenvalues --    0.25400   0.26102   0.27215   0.29390   0.31634
 Alpha virt. eigenvalues --    0.32148   0.32994   0.33860   0.34613   0.36567
 Alpha virt. eigenvalues --    0.37810   0.39014   0.40033   0.40546   0.41291
 Alpha virt. eigenvalues --    0.41714   0.42890   0.44201   0.45903   0.46306
 Alpha virt. eigenvalues --    0.46569   0.47215   0.48246   0.48938   0.50277
 Alpha virt. eigenvalues --    0.51048   0.52946   0.53567   0.54015   0.55682
 Alpha virt. eigenvalues --    0.56667   0.59820   0.60335   0.62253   0.63641
 Alpha virt. eigenvalues --    0.65077   0.68577   0.70356   0.72081   0.73808
 Alpha virt. eigenvalues --    0.77506   0.86761   0.90644   0.91403   0.94672
 Alpha virt. eigenvalues --    0.95499   0.98385   1.05885   1.11320   1.14243
 Alpha virt. eigenvalues --    1.16926   1.18172   1.19327   1.20519   1.24474
 Alpha virt. eigenvalues --    1.25564   1.31539   1.33761   1.37994   1.41250
 Alpha virt. eigenvalues --    1.42706   1.44563   1.44890   1.46411   1.47275
 Alpha virt. eigenvalues --    1.48799   1.49774   1.51501   1.52815   1.54783
 Alpha virt. eigenvalues --    1.57713   1.57995   1.61134   1.69894   1.70871
 Alpha virt. eigenvalues --    1.71714   1.72635   1.74345   1.74866   1.81854
 Alpha virt. eigenvalues --    1.82201   1.83249   1.84193   1.86901   1.88388
 Alpha virt. eigenvalues --    1.88748   1.90886   1.94564   1.96974   1.99456
 Alpha virt. eigenvalues --    2.00451   2.00706   2.05858   2.07001   2.08343
 Alpha virt. eigenvalues --    2.11421   2.11902   2.13239   2.14537   2.16449
 Alpha virt. eigenvalues --    2.18079   2.18123   2.18478   2.18602   2.19371
 Alpha virt. eigenvalues --    2.19785   2.20065   2.20627   2.21915   2.23526
 Alpha virt. eigenvalues --    2.26751   2.26960   2.27837   2.30395   2.31733
 Alpha virt. eigenvalues --    2.32698   2.33866   2.34855   2.35904   2.36960
 Alpha virt. eigenvalues --    2.38476   2.38855   2.40281   2.41094   2.42644
 Alpha virt. eigenvalues --    2.44102   2.44862   2.46637   2.47552   2.48693
 Alpha virt. eigenvalues --    2.51914   2.53509   2.56725   2.56959   2.60991
 Alpha virt. eigenvalues --    2.76410   2.78432   3.00253   3.03214   3.09832
 Alpha virt. eigenvalues --    3.12147   3.12553   3.13919   3.15513   3.19105
 Alpha virt. eigenvalues --    3.61737   3.88013   4.00196   4.07275   4.18452
 Alpha virt. eigenvalues --    4.19877   4.22637   4.25351   4.29948   4.32243
 Alpha virt. eigenvalues --    4.54420   4.55903   4.59608   4.63026   4.74371
 Alpha virt. eigenvalues --    4.75755   4.77602   4.81070   4.90078   4.97791
 Alpha virt. eigenvalues --    5.03400   5.16212   5.24250   5.25378   5.26201
 Alpha virt. eigenvalues --    5.27330   5.30268   5.34681   5.39255   5.63615
 Alpha virt. eigenvalues --    5.67259   5.88381   6.15397   6.34358   6.35768
 Alpha virt. eigenvalues --    6.50245   6.86836   6.92576  10.78589  10.81054
 Alpha virt. eigenvalues --   10.81558  10.82794  10.83213  10.85436  24.59310
 Alpha virt. eigenvalues --   24.91171  27.23319  30.47850  31.28037  31.55032
 Alpha virt. eigenvalues --   31.59026  43.36378  51.99991 282.30937
          Condensed to atoms (all electrons):
               1          2          3          4          5          6
     1  Pt  17.254534   0.123766   0.111850   0.145365  -0.025561  -0.035616
     2  Cl   0.123766  17.473621  -0.033681  -0.026892   0.002169   0.001680
     3  Cl   0.111850  -0.033681  17.488593  -0.004394   0.001934   0.000571
     4  N    0.145365  -0.026892  -0.004394   6.361034   0.360723   0.343862
     5  H   -0.025561   0.002169   0.001934   0.360723   0.410176  -0.025037
     6  H   -0.035616   0.001680   0.000571   0.343862  -0.025037   0.490900
     7  O    0.073878   0.000040  -0.050076  -0.005357   0.000192   0.000173
     8  H   -0.021778   0.000140   0.003646   0.000343  -0.000034  -0.000045
     9  H   -0.023846   0.000292   0.070779   0.000499  -0.000308   0.000036
    10  N    0.080264  -0.007319  -0.005652  -0.016405  -0.000326  -0.006976
    11  H   -0.035349  -0.001602   0.000469  -0.000036  -0.000298   0.001322
    12  H   -0.031212   0.000464  -0.000614  -0.000360   0.000128   0.006659
    13  H   -0.028716   0.000355  -0.000588   0.001213   0.000141  -0.000429
    14  H   -0.016533   0.044698   0.000338   0.319349  -0.021150  -0.017358
               7          8          9         10         11         12
     1  Pt   0.073878  -0.021778  -0.023846   0.080264  -0.035349  -0.031212
     2  Cl   0.000040   0.000140   0.000292  -0.007319  -0.001602   0.000464
     3  Cl  -0.050076   0.003646   0.070779  -0.005652   0.000469  -0.000614
     4  N   -0.005357   0.000343   0.000499  -0.016405  -0.000036  -0.000360
     5  H    0.000192  -0.000034  -0.000308  -0.000326  -0.000298   0.000128
     6  H    0.000173  -0.000045   0.000036  -0.006976   0.001322   0.006659
     7  O    7.926134   0.289248   0.263442  -0.009633  -0.000095   0.000471
     8  H    0.289248   0.412210  -0.010997  -0.003997   0.000091  -0.000296
     9  H    0.263442  -0.010997   0.347803   0.000366  -0.000114   0.000263
    10  N   -0.009633  -0.003997   0.000366   6.551974   0.361446   0.345772
    11  H   -0.000095   0.000091  -0.000114   0.361446   0.437479  -0.031834
    12  H    0.000471  -0.000296   0.000263   0.345772  -0.031834   0.454230
    13  H    0.002297   0.005296  -0.000624   0.350317  -0.025809  -0.015919
    14  H    0.000291   0.000038   0.000067   0.000431   0.000231  -0.000508
              13         14
     1  Pt  -0.028716  -0.016533
     2  Cl   0.000355   0.044698
     3  Cl  -0.000588   0.000338
     4  N    0.001213   0.319349
     5  H    0.000141  -0.021150
     6  H   -0.000429  -0.017358
     7  O    0.002297   0.000291
     8  H    0.005296   0.000038
     9  H   -0.000624   0.000067
    10  N    0.350317   0.000431
    11  H   -0.025809   0.000231
    12  H   -0.015919  -0.000508
    13  H    0.445499   0.000064
    14  H    0.000064   0.397621
 Mulliken charges:
               1
     1  Pt   0.428955
     2  Cl  -0.577730
     3  Cl  -0.583176
     4  N   -0.478944
     5  H    0.297251
     6  H    0.240259
     7  O   -0.491004
     8  H    0.326134
     9  H    0.352340
    10  N   -0.640263
    11  H    0.294099
    12  H    0.272756
    13  H    0.266904
    14  H    0.292420
 Sum of Mulliken charges =   0.00000
 Mulliken charges with hydrogens summed into heavy atoms:
               1
     1  Pt   0.428955
     2  Cl  -0.577730
     3  Cl  -0.583176
     4  N    0.350986
     7  O    0.187470
    10  N    0.193496
 APT charges:
               1
     1  Pt   1.042644
     2  Cl  -0.774151
     3  Cl  -0.785490
     4  N   -0.136359
     5  H    0.171942
     6  H    0.125030
     7  O   -0.465257
     8  H    0.241457
     9  H    0.357407
    10  N   -0.436078
    11  H    0.153867
    12  H    0.142798
    13  H    0.143525
    14  H    0.218665
 Sum of APT charges =   0.00000
 APT charges with hydrogens summed into heavy atoms:
               1
     1  Pt   1.042644
     2  Cl  -0.774151
     3  Cl  -0.785490
     4  N    0.379278
     7  O    0.133608
    10  N    0.004112
 Electronic spatial extent (au):  <R**2>=           1486.0076
 Charge=              0.0000 electrons
 Dipole moment (field-independent basis, Debye):
    X=             14.0971    Y=             -1.3273    Z=              1.8325  Tot=             14.2775
 Quadrupole moment (field-independent basis, Debye-Ang):
   XX=            -65.3114   YY=            -73.7463   ZZ=            -62.1649
   XY=              0.6858   XZ=              0.5601   YZ=             18.7245
 Traceless Quadrupole moment (field-independent basis, Debye-Ang):
   XX=              1.7628   YY=             -6.6721   ZZ=              4.9093
   XY=              0.6858   XZ=              0.5601   YZ=             18.7245
 Octapole moment (field-independent basis, Debye-Ang**2):
  XXX=            121.0462  YYY=            -18.9248  ZZZ=             16.4035  XYY=             47.9281
  XXY=             -3.6709  XXZ=             -4.6248  XZZ=             33.7024  YZZ=             -0.5698
  YYZ=             -5.5513  XYZ=             -4.2371
 Hexadecapole moment (field-independent basis, Debye-Ang**3):
 XXXX=           -737.6791 YYYY=           -710.2096 ZZZZ=           -366.4444 XXXY=             -2.5061
 XXXZ=              5.0115 YYYX=              5.4332 YYYZ=             88.8081 ZZZX=              1.4067
 ZZZY=             60.0108 XXYY=           -263.9662 XXZZ=           -187.5442 YYZZ=           -162.4934
 XXYZ=             32.3511 YYXZ=             -2.8679 ZZXY=             -2.5442
 N-N= 5.170393280475D+02 E-N=-3.919186565305D+03  KE= 1.148381656753D+03
  Exact polarizability: 113.369  -2.085 110.072   0.506  -3.992  86.788
 Approx polarizability: 175.772  -6.052 176.362   0.765 -14.679 139.834
 No NMR shielding tensors so no spin-rotation constants.
 Leave Link  601 at Mon Dec 28 12:25:23 2020, MaxMem=  4026531840 cpu:         6.8
 (Enter /home/scicons/Gaussian09.D01/l701.exe)
 Compute integral second derivatives.
 ... and contract with generalized density number  0.
 R6Disp: Adding Grimme-D3(BJ) dispersion energy 2nd derivatives to the Hessian.
   1 Symmetry operations used in ECPInt.
 ECPInt:  NShTT=    5565 NPrTT=   17197 LenC2=    5349 LenP2D=   12563.
 LDataN:  DoStor=T MaxTD1=10 Len=  848
 Leave Link  701 at Mon Dec 28 12:25:37 2020, MaxMem=  4026531840 cpu:       275.3
 (Enter /home/scicons/Gaussian09.D01/l702.exe)
 L702 exits ... SP integral derivatives will be done elsewhere.
 Leave Link  702 at Mon Dec 28 12:25:37 2020, MaxMem=  4026531840 cpu:         0.4
 (Enter /home/scicons/Gaussian09.D01/l703.exe)
 Compute integral second derivatives, UseDBF=F ICtDFT=           0.
 Integral derivatives from FoFJK, PRISM(SPDF).
 Calling FoFJK, ICntrl=    100127 FMM=F ISym2X=0 I1Cent= 0 IOpClX= 0 NMat=1 NMatS=1 NMatT=0.
 FoFJK:  IHMeth= 1 ICntrl=  100127 DoSepK=F KAlg= 0 I1Cent=   0 FoldK=F
 IRaf=         0 NMat=   1 IRICut=       1 DoRegI=T DoRafI=F ISym2E= 0.
 FoFCou: FMM=F IPFlag=           0 FMFlag=      100000 FMFlg1=         800
         NFxFlg=           0 DoJE=F BraDBF=F KetDBF=F FulRan=T
         wScrn=  0.000000 ICntrl=  100127 IOpCl=  0 I1Cent=           0 NGrid=           0
         NMat0=    1 NMatS0=      1 NMatT0=    0 NMatD0=    1 NMtDS0=    0 NMtDT0=    0
 Symmetry not used in FoFCou.
 Defaulting to unpruned grid for atomic number  78.
 Defaulting to unpruned grid for atomic number  78.
 Defaulting to unpruned grid for atomic number  78.
 Defaulting to unpruned grid for atomic number  78.
 Defaulting to unpruned grid for atomic number  78.
 Defaulting to unpruned grid for atomic number  78.
 Defaulting to unpruned grid for atomic number  78.
 Defaulting to unpruned grid for atomic number  78.
 Defaulting to unpruned grid for atomic number  78.
 Defaulting to unpruned grid for atomic number  78.
 Defaulting to unpruned grid for atomic number  78.
 Defaulting to unpruned grid for atomic number  78.
 Defaulting to unpruned grid for atomic number  78.
 Defaulting to unpruned grid for atomic number  78.
 Defaulting to unpruned grid for atomic number  78.
 Defaulting to unpruned grid for atomic number  78.
 Defaulting to unpruned grid for atomic number  78.
 Defaulting to unpruned grid for atomic number  78.
 Defaulting to unpruned grid for atomic number  78.
 Defaulting to unpruned grid for atomic number  78.
 Leave Link  703 at Mon Dec 28 12:26:19 2020, MaxMem=  4026531840 cpu:       838.7
 (Enter /home/scicons/Gaussian09.D01/l716.exe)
 Dipole        = 5.54622461D+00-5.22181456D-01 7.20972928D-01
 Polarizability= 1.13368816D+02-2.08535764D+00 1.10072361D+02
                 5.05792363D-01-3.99186501D+00 8.67878362D+01
 ***** Axes restored to original set *****
 -------------------------------------------------------------------
 Center     Atomic                   Forces (Hartrees/Bohr)
 Number     Number              X              Y              Z
 -------------------------------------------------------------------
      1       78          -0.027526217   -0.002297858    0.001711310
      2       17           0.012828849    0.008438767   -0.003051645
      3       17           0.010584997   -0.005691242    0.000997849
      4        7           0.001365673    0.002558484   -0.003041909
      5        1          -0.002194088    0.000798457    0.002401593
      6        1          -0.002063048   -0.000519273   -0.000866758
      7        8           0.008333935   -0.001930545    0.001954246
      8        1          -0.004423197   -0.000561793   -0.000651075
      9        1          -0.009670210    0.004332109   -0.005107778
     10        7           0.013292206   -0.001249220    0.000008456
     11        1           0.000264712   -0.000405238    0.001679700
     12        1           0.001737773    0.000881017    0.003046101
     13        1           0.002790788   -0.000237956   -0.003212781
     14        1          -0.005322174   -0.004115708    0.004132692
 -------------------------------------------------------------------
 Cartesian Forces:  Max     0.027526217 RMS     0.006364248
 FormGI is forming the generalized inverse of G from B-inverse, IUseBI=4.
 Leave Link  716 at Mon Dec 28 12:26:21 2020, MaxMem=  4026531840 cpu:         0.7
 (Enter /home/scicons/Gaussian09.D01/l103.exe)

 GradGradGradGradGradGradGradGradGradGradGradGradGradGradGradGradGradGrad
 Berny optimization.
 Red2BG is reusing G-inverse.
 Internal  Forces:  Max     0.018097250 RMS     0.004008143
 Search for a saddle point.
 Step number   1 out of a maximum of   93
 All quantities printed in internal units (Hartrees-Bohrs-Radians)
 Swapping is turned off.
 Second derivative matrix not updated -- analytic derivatives used.
 ITU=  0
     Eigenvalues ---   -0.02581  -0.00026  -0.00016   0.00019   0.00090
     Eigenvalues ---    0.00792   0.01312   0.01877   0.02080   0.02399
     Eigenvalues ---    0.02713   0.03058   0.03283   0.03612   0.04077
     Eigenvalues ---    0.05215   0.06431   0.06796   0.07233   0.07707
     Eigenvalues ---    0.08039   0.08503   0.08774   0.09141   0.10135
     Eigenvalues ---    0.12458   0.13116   0.17509   0.39126   0.43178
     Eigenvalues ---    0.43304   0.43625   0.43673   0.44183   0.44247
     Eigenvalues ---    0.50180
 Eigenvectors required to have negative eigenvalues:
                          R2        R1        A7        A4        D13
   1                    0.42188  -0.39986  -0.32068   0.31053   0.24711
                          D25       D12       D11       D24       D1
   1                   -0.24379   0.23597   0.23512  -0.22600   0.14030
 Eigenvalue     2 is  -2.55D-04 should be greater than     0.000000 Eigenvector:
                          D9        D41       D12       D40       D6
   1                   -0.24995   0.24773  -0.24710   0.24065  -0.23551
                          R6        D8        D17       D11       D39
   1                    0.22549  -0.21744  -0.21602  -0.21458   0.20908
 Eigenvalue     3 is  -1.59D-04 should be greater than     0.000000 Eigenvector:
                          D20       D24       D16       D14       D18
   1                   -0.27082  -0.26966  -0.26735  -0.26334  -0.25907
                          D22       D34       D37       D33       D32
   1                   -0.22706  -0.22550  -0.21759  -0.21009  -0.20501
 RFO step:  Lambda0=5.150286726D-04 Lambda=-1.64277137D-02.
 Linear search not attempted -- option 19 set.
 Maximum step size (   0.300) exceeded in Quadratic search.
    -- Step size scaled by   0.480
 Iteration  1 RMS(Cart)=  0.05682025 RMS(Int)=  0.00491340
 Iteration  2 RMS(Cart)=  0.00412544 RMS(Int)=  0.00096713
 Iteration  3 RMS(Cart)=  0.00000886 RMS(Int)=  0.00096710
 Iteration  4 RMS(Cart)=  0.00000001 RMS(Int)=  0.00096710
 ITry= 1 IFail=0 DXMaxC= 1.84D-01 DCOld= 1.00D+10 DXMaxT= 3.00D-01 DXLimC= 3.00D+00 Rises=F
 Variable       Old X    -DE/DX   Delta X   Delta X   Delta X     New X
                                 (Linear)    (Quad)   (Total)
    R1        5.12285  -0.00984   0.00000  -0.06157  -0.06169   5.06115
    R2        5.07706  -0.01119   0.00000  -0.08418  -0.08418   4.99288
    R3        3.81790   0.00272   0.00000   0.00685   0.00629   3.82419
    R4        3.97894  -0.00343   0.00000  -0.00566  -0.00566   3.97328
    R5        3.95744   0.01810   0.00000   0.07173   0.07173   4.02917
    R6        4.93378  -0.00771   0.00000  -0.23057  -0.23003   4.70376
    R7        1.92399   0.00053   0.00000  -0.00102  -0.00102   1.92297
    R8        1.92345  -0.00132   0.00000  -0.00180  -0.00180   1.92165
    R9        1.92835   0.00159   0.00000   0.00588   0.00598   1.93433
   R10        1.83246  -0.00415   0.00000  -0.00396  -0.00396   1.82851
   R11        1.85529   0.00920   0.00000   0.02170   0.02170   1.87699
   R12        1.92152   0.00015   0.00000  -0.00109  -0.00109   1.92043
   R13        1.92205  -0.00093   0.00000  -0.00204  -0.00204   1.92001
   R14        1.92167  -0.00182   0.00000  -0.00217  -0.00217   1.91950
    A1        1.50531   0.00281   0.00000   0.03140   0.03007   1.53538
    A2        1.44286  -0.00083   0.00000  -0.02994  -0.03071   1.41215
    A3        1.64620  -0.00519   0.00000   0.00500   0.00605   1.65225
    A4        2.35943  -0.00063   0.00000  -0.04540  -0.04394   2.31549
    A5        1.73475  -0.00031   0.00000  -0.00026   0.00004   1.73479
    A6        1.34319  -0.00820   0.00000  -0.04043  -0.04031   1.30288
    A7        2.41654  -0.00229   0.00000   0.01332   0.01314   2.42967
    A8        1.58169   0.00209   0.00000   0.02122   0.02124   1.60292
    A9        1.63892   0.00792   0.00000   0.02475   0.02495   1.66387
   A10        0.98165   0.00266   0.00000   0.02146   0.02073   1.00238
   A11        1.93276  -0.00250   0.00000  -0.00244  -0.00338   1.92938
   A12        2.00019   0.00180   0.00000   0.01558   0.01690   2.01709
   A13        1.86024  -0.00005   0.00000  -0.03184  -0.03357   1.82668
   A14        1.88349   0.00062   0.00000   0.00861   0.00814   1.89164
   A15        1.89022   0.00155   0.00000   0.01039   0.01199   1.90220
   A16        1.89402  -0.00139   0.00000  -0.00057  -0.00061   1.89341
   A17        1.99299   0.00366   0.00000   0.00370   0.00373   1.99673
   A18        1.71640  -0.00908   0.00000  -0.06660  -0.06650   1.64991
   A19        1.85204   0.00378   0.00000   0.01014   0.01012   1.86216
   A20        1.93507  -0.00065   0.00000  -0.00756  -0.00755   1.92752
   A21        1.94595   0.00208   0.00000   0.00636   0.00636   1.95230
   A22        1.93780   0.00410   0.00000   0.00697   0.00696   1.94476
   A23        1.88265  -0.00005   0.00000   0.00485   0.00486   1.88752
   A24        1.88198  -0.00203   0.00000  -0.00487  -0.00485   1.87712
   A25        1.87774  -0.00376   0.00000  -0.00611  -0.00614   1.87160
   A26        1.99133  -0.00176   0.00000   0.05197   0.05045   2.04178
   A27        3.08906  -0.00602   0.00000  -0.02494  -0.02466   3.06440
   A28        3.20121   0.00819   0.00000   0.04024   0.04043   3.24164
    D1        1.78961  -0.00067   0.00000  -0.03821  -0.03920   1.75041
    D2        0.04458  -0.00003   0.00000  -0.03615  -0.03693   0.00766
    D3        3.12656  -0.00822   0.00000  -0.07640  -0.07735   3.04921
    D4       -1.41207  -0.00234   0.00000  -0.04705  -0.04765  -1.45972
    D5        1.95321   0.00062   0.00000   0.07758   0.07622   2.02944
    D6       -2.19448   0.00082   0.00000   0.09858   0.09711  -2.09737
    D7       -0.09909   0.00014   0.00000   0.08502   0.08286  -0.01622
    D8        0.47069  -0.00215   0.00000   0.05071   0.05081   0.52151
    D9        2.60618  -0.00196   0.00000   0.07171   0.07170   2.67788
   D10       -1.58161  -0.00264   0.00000   0.05816   0.05745  -1.52415
   D11       -1.96416  -0.00028   0.00000   0.03130   0.03112  -1.93303
   D12        0.17133  -0.00008   0.00000   0.05231   0.05201   0.22334
   D13        2.26673  -0.00077   0.00000   0.03875   0.03776   2.30449
   D14       -1.54580  -0.00044   0.00000   0.11000   0.10996  -1.43583
   D15        0.40216  -0.00114   0.00000   0.07863   0.07783   0.48000
   D16        0.60487   0.00125   0.00000   0.13945   0.14048   0.74534
   D17        2.55283   0.00055   0.00000   0.10808   0.10835   2.66117
   D18        2.70767   0.00172   0.00000   0.12885   0.12689   2.83456
   D19       -1.62756   0.00102   0.00000   0.09748   0.09476  -1.53280
   D20        2.79473  -0.00036   0.00000   0.03716   0.03868   2.83341
   D21       -1.53499   0.00029   0.00000   0.01386   0.01614  -1.51885
   D22       -2.00263   0.00300   0.00000   0.06447   0.06436  -1.93827
   D23       -0.04916   0.00364   0.00000   0.04117   0.04182  -0.00734
   D24        0.42269  -0.00022   0.00000   0.07807   0.07763   0.50033
   D25        2.37616   0.00042   0.00000   0.05477   0.05509   2.43125
   D26        0.03182   0.00032   0.00000  -0.00377  -0.00438   0.02744
   D27        2.12977   0.00120   0.00000   0.00151   0.00090   2.13066
   D28       -2.05985   0.00060   0.00000   0.00275   0.00216  -2.05769
   D29        3.08293  -0.00198   0.00000  -0.01865  -0.01886   3.06408
   D30       -1.10231  -0.00110   0.00000  -0.01337  -0.01358  -1.11589
   D31        0.99126  -0.00170   0.00000  -0.01212  -0.01232   0.97894
   D32       -1.36807  -0.00073   0.00000   0.00997   0.01114  -1.35693
   D33        0.72987   0.00016   0.00000   0.01525   0.01642   0.74629
   D34        2.82344  -0.00045   0.00000   0.01650   0.01768   2.84112
   D35        1.77934   0.00088   0.00000   0.01774   0.01737   1.79671
   D36       -2.40590   0.00177   0.00000   0.02302   0.02265  -2.38325
   D37       -0.31233   0.00116   0.00000   0.02426   0.02391  -0.28842
   D38       -0.09602   0.00017   0.00000   0.07630   0.07924  -0.01678
   D39        0.11183  -0.00029   0.00000  -0.08997  -0.09249   0.01934
   D40       -1.96837   0.00186   0.00000  -0.07520  -0.07651  -2.04488
   D41        2.27445   0.00104   0.00000  -0.09075  -0.09248   2.18197
         Item               Value     Threshold  Converged?
 Maximum Force            0.018097     0.000450     NO 
 RMS     Force            0.004008     0.000300     NO 
 Maximum Displacement     0.183835     0.001800     NO 
 RMS     Displacement     0.057658     0.001200     NO 
 Predicted change in Energy=-6.724880D-03
 Lowest energy point so far.  Saving SCF results.
 GradGradGradGradGradGradGradGradGradGradGradGradGradGradGradGradGradGrad

 Leave Link  103 at Mon Dec 28 12:26:21 2020, MaxMem=  4026531840 cpu:         2.6
 (Enter /home/scicons/Gaussian09.D01/l202.exe)
                          Input orientation:                          
 ---------------------------------------------------------------------
 Center     Atomic      Atomic             Coordinates (Angstroms)
 Number     Number       Type             X           Y           Z
 ---------------------------------------------------------------------
      1         78           0       -0.345095   -0.029174    0.165448
      2         17           0       -2.313405   -1.814996   -0.165616
      3         17           0       -2.200847    1.781942    0.672236
      4          7           0       -0.433684   -0.036212   -1.856275
      5          1           0       -0.714309    0.877789   -2.204623
      6          1           0        0.421635   -0.312003   -2.332135
      7          8           0       -0.513210    0.024276    2.260603
      8          1           0        0.256766    0.395382    2.714116
      9          1           0       -1.213808    0.728344    2.265198
     10          7           0        1.780068   -0.199871    0.141470
     11          1           0        2.056979   -1.157078   -0.058126
     12          1           0        2.200175    0.403796   -0.559534
     13          1           0        2.182933    0.054840    1.038455
     14          1           0       -1.164197   -0.717034   -2.081216
 ---------------------------------------------------------------------
                    Distance matrix (angstroms):
                    1          2          3          4          5
     1  Pt   0.000000
     2  Cl   2.678247   0.000000
     3  Cl   2.642118   3.694946   0.000000
     4  N    2.023676   3.091238   3.580770   0.000000
     5  H    2.564399   3.737078   3.362083   1.017592   0.000000
     6  H    2.627887   3.799110   4.504249   1.016894   1.649920
     7  O    2.102568   3.536971   2.908679   4.118090   4.550513
     8  H    2.652959   4.447967   3.483056   4.642357   5.036835
     9  H    2.395296   3.685993   2.149847   4.263763   4.500126
    10  N    2.132143   4.411287   4.478502   2.986381   3.589906
    11  H    2.663102   4.420935   5.224973   3.270028   4.053168
    12  H    2.681691   5.044861   4.773420   2.968562   3.380120
    13  H    2.675841   5.016286   4.725941   3.903132   4.425925
    14  H    2.488289   2.489121   3.860184   1.023605   1.661652
                    6          7          8          9         10
     6  H    0.000000
     7  O    4.698963   0.000000
     8  H    5.098257   0.967604   0.000000
     9  H    4.989234   0.993262   1.573206   0.000000
    10  N    2.824294   3.130510   3.048489   3.786172   0.000000
    11  H    2.925682   3.657591   3.651880   4.432910   1.016250
    12  H    2.611070   3.931879   3.807059   4.442940   1.016027
    13  H    3.820683   2.960366   2.575642   3.673738   1.015755
    14  H    1.655861   4.452496   5.123653   4.580708   3.725117
                   11         12         13         14
    11  H    0.000000
    12  H    1.645675   0.000000
    13  H    1.639237   1.635737   0.000000
    14  H    3.829166   3.858857   4.640196   0.000000
 Stoichiometry    Cl2H8N2OPt
 Framework group  C1[X(Cl2H8N2OPt)]
 Deg. of freedom    36
 Full point group                 C1      NOp   1
 RotChk:  IX=0 Diff= 6.96D-02
 Largest Abelian subgroup         C1      NOp   1
 Largest concise Abelian subgroup C1      NOp   1
                         Standard orientation:                         
 ---------------------------------------------------------------------
 Center     Atomic      Atomic             Coordinates (Angstroms)
 Number     Number       Type             X           Y           Z
 ---------------------------------------------------------------------
      1         78           0        0.316881   -0.042537    0.003294
      2         17           0       -1.371293    1.894036   -0.753514
      3         17           0       -1.784972   -1.440489    0.783509
      4          7           0        0.506006    1.187966    1.598712
      5          1           0        0.173065    0.730107    2.444294
      6          1           0        1.444015    1.540003    1.772736
      7          8           0       -0.140164   -1.308739   -1.611833
      8          1           0        0.513427   -2.003985   -1.772173
      9          1           0       -0.910543   -1.740676   -1.157394
     10          7           0        2.430956   -0.263419   -0.163820
     11          1           0        2.839839    0.556726   -0.603070
     12          1           0        2.871048   -0.389112    0.743281
     13          1           0        2.676123   -1.069249   -0.731525
     14          1           0       -0.104572    1.981880    1.387380
 ---------------------------------------------------------------------
 Rotational constants (GHZ):      1.2691484      1.1367164      0.8800549
 Leave Link  202 at Mon Dec 28 12:26:21 2020, MaxMem=  4026531840 cpu:         0.2
 (Enter /home/scicons/Gaussian09.D01/l301.exe)
 Standard basis: def2TZVP (5D, 7F)
 Ernie: Thresh=  0.10000D-02 Tol=  0.10000D-05 Strict=F.
 There are   286 symmetry adapted cartesian basis functions of A   symmetry.
 There are   255 symmetry adapted basis functions of A   symmetry.
   255 basis functions,   430 primitive gaussians,   286 cartesian basis functions
    41 alpha electrons       41 beta electrons
       nuclear repulsion energy       520.0494683955 Hartrees.
 IExCor=  402 DFT=T Ex+Corr=B3LYP ExCW=0 ScaHFX=  0.200000
 ScaDFX=  0.800000  0.720000  1.000000  0.810000 ScalE2=  1.000000  1.000000
 IRadAn=      0 IRanWt=     -1 IRanGd=            0 ICorTp=0 IEmpDi=141
 NAtoms=   14 NActive=   14 NUniq=   14 SFac= 1.00D+00 NAtFMM=   60 NAOKFM=F Big=F
 Integral buffers will be    131072 words long.
 Raffenetti 2 integral format.
 Two-electron integral symmetry is turned on.
 R6Disp:  Grimme-D3(BJ) Dispersion energy=       -0.0273604525 Hartrees.
 Nuclear repulsion after empirical dispersion term =      520.0221079430 Hartrees.
 Leave Link  301 at Mon Dec 28 12:26:22 2020, MaxMem=  4026531840 cpu:         1.4
 (Enter /home/scicons/Gaussian09.D01/l302.exe)
 NPDir=0 NMtPBC=     1 NCelOv=     1 NCel=       1 NClECP=     1 NCelD=      1
         NCelK=      1 NCelE2=     1 NClLst=     1 CellRange=     0.0.
 One-electron integrals computed using PRISM.
   1 Symmetry operations used in ECPInt.
 ECPInt:  NShTT=    5565 NPrTT=   17197 LenC2=    5352 LenP2D=   12585.
 LDataN:  DoStor=T MaxTD1= 8 Len=  415
 NBasis=   255 RedAO= T EigKep=  2.12D-03  NBF=   255
 NBsUse=   255 1.00D-06 EigRej= -1.00D+00 NBFU=   255
 Precomputing XC quadrature grid using
 IXCGrd= 4 IRadAn=           0 IRanWt=          -1 IRanGd=           0 AccXCQ= 0.00D+00.
 Defaulting to unpruned grid for atomic number  78.
 Generated NRdTot=       0 NPtTot=           0 NUsed=           0 NTot=          32
 NSgBfM=   284   284   284   284   284 MxSgAt=    14 MxSgA2=    14.
 Leave Link  302 at Mon Dec 28 12:26:23 2020, MaxMem=  4026531840 cpu:        26.4
 (Enter /home/scicons/Gaussian09.D01/l303.exe)
 DipDrv:  MaxL=1.
 Leave Link  303 at Mon Dec 28 12:26:23 2020, MaxMem=  4026531840 cpu:         0.8
 (Enter /home/scicons/Gaussian09.D01/l401.exe)
 Initial guess from the checkpoint file:  "pt-n-o-ts-81.chk"
 B after Tr=     0.000000    0.000000    0.000000
         Rot=    0.999619    0.005279    0.001429    0.027052 Ang=   3.16 deg.
 Guess basis will be translated and rotated to current coordinates.
 JPrj=2 DoOrth=T DoCkMO=T.
 Generating alternative initial guess.
 ExpMin= 4.92D-02 ExpMax= 6.95D+04 ExpMxC= 2.37D+03 IAcc=2 IRadAn=         4 AccDes= 0.00D+00
 Harris functional with IExCor=  402 and IRadAn=       4 diagonalized for initial guess.
 HarFok:  IExCor=  402 AccDes= 0.00D+00 IRadAn=         4 IDoV= 1 UseB2=F ITyADJ=14
 ICtDFT=  3500011 ScaDFX=  1.000000  1.000000  1.000000  1.000000
 Defaulting to unpruned grid for atomic number  78.
 Defaulting to unpruned grid for atomic number  78.
 Defaulting to unpruned grid for atomic number  78.
 Defaulting to unpruned grid for atomic number  78.
 Defaulting to unpruned grid for atomic number  78.
 Defaulting to unpruned grid for atomic number  78.
 Defaulting to unpruned grid for atomic number  78.
 Defaulting to unpruned grid for atomic number  78.
 Defaulting to unpruned grid for atomic number  78.
 Defaulting to unpruned grid for atomic number  78.
 Defaulting to unpruned grid for atomic number  78.
 Defaulting to unpruned grid for atomic number  78.
 Defaulting to unpruned grid for atomic number  78.
 Defaulting to unpruned grid for atomic number  78.
 Defaulting to unpruned grid for atomic number  78.
 Defaulting to unpruned grid for atomic number  78.
 Defaulting to unpruned grid for atomic number  78.
 Defaulting to unpruned grid for atomic number  78.
 Defaulting to unpruned grid for atomic number  78.
 Defaulting to unpruned grid for atomic number  78.
 FoFCou: FMM=F IPFlag=           0 FMFlag=      100000 FMFlg1=           0
         NFxFlg=           0 DoJE=T BraDBF=F KetDBF=T FulRan=T
         wScrn=  0.000000 ICntrl=     500 IOpCl=  0 I1Cent=   200000004 NGrid=           0
         NMat0=    1 NMatS0=      1 NMatT0=    0 NMatD0=    1 NMtDS0=    0 NMtDT0=    0
 Petite list used in FoFCou.
 Harris En= -1229.19883602813    
 Leave Link  401 at Mon Dec 28 12:26:25 2020, MaxMem=  4026531840 cpu:        25.1
 (Enter /home/scicons/Gaussian09.D01/l502.exe)
 Closed shell SCF:
 Using DIIS extrapolation, IDIIS=  1040.
 Integral symmetry usage will be decided dynamically.
 Keep R1 ints in memory in canonical form, NReq=544792690.
 IVT=      271762 IEndB=      271762 NGot=  4026531840 MDV=  3493558959
 LenX=  3493558959 LenY=  3493476722
 Requested convergence on RMS density matrix=1.00D-08 within 128 cycles.
[...]
 ! R13   R(10,12)                1.0143         -DE/DX =    0.0                 !
 ! R14   R(10,13)                1.0207         -DE/DX =    0.0                 !
 ! A1    A(2,1,3)              141.9962         -DE/DX =    0.0                 !
 ! A2    A(2,1,4)               85.6772         -DE/DX =    0.0                 !
 ! A3    A(2,1,7)               93.8329         -DE/DX =    0.0                 !
 ! A4    A(2,1,10)             147.1742         -DE/DX =    0.0                 !
 ! A5    A(3,1,4)              104.9886         -DE/DX =    0.0                 !
 ! A6    A(3,1,7)               71.5491         -DE/DX =    0.0                 !
 ! A7    A(3,1,10)              70.4185         -DE/DX =    0.0                 !
 ! A8    A(4,1,10)              89.652          -DE/DX =    0.0                 !
 ! A9    A(7,1,10)              94.2164         -DE/DX =    0.0                 !
 ! A10   A(1,2,14)              62.5459         -DE/DX =    0.0                 !
 ! A11   A(1,4,5)              109.7499         -DE/DX =    0.0                 !
 ! A12   A(1,4,6)              112.8929         -DE/DX =    0.0                 !
 ! A13   A(1,4,14)             106.4313         -DE/DX =    0.0                 !
 ! A14   A(5,4,6)              109.3075         -DE/DX =    0.0                 !
 ! A15   A(5,4,14)             109.4711         -DE/DX =    0.0                 !
 ! A16   A(6,4,14)             108.9111         -DE/DX =    0.0                 !
 ! A17   A(1,7,8)              114.0845         -DE/DX =    0.0                 !
 ! A18   A(1,7,9)               94.7094         -DE/DX =    0.0                 !
 ! A19   A(8,7,9)              108.8484         -DE/DX =    0.0                 !
 ! A20   A(1,10,11)            114.0731         -DE/DX =    0.0                 !
 ! A21   A(1,10,12)            120.9958         -DE/DX =    0.0                 !
 ! A22   A(1,10,13)             94.1907         -DE/DX =    0.0                 !
 ! A23   A(11,10,12)           107.5946         -DE/DX =    0.0                 !
 ! A24   A(11,10,13)           110.033          -DE/DX =    0.0                 !
 ! A25   A(12,10,13)           108.8613         -DE/DX =    0.0                 !
 ! A26   A(2,14,4)             105.1598         -DE/DX =    0.0                 !
 ! A27   L(4,1,7,2,-1)         179.5101         -DE/DX =    0.0                 !
 ! A28   L(4,1,7,2,-2)         186.4963         -DE/DX =    0.0                 !
 ! D1    D(3,1,2,14)           107.1323         -DE/DX =    0.0                 !
 ! D2    D(4,1,2,14)            -1.8033         -DE/DX =    0.0                 !
 ! D3    D(7,1,2,14)           171.7003         -DE/DX =    0.0                 !
 ! D4    D(10,1,2,14)          -84.4255         -DE/DX =    0.0                 !
 ! D5    D(2,1,4,5)            122.4791         -DE/DX =    0.0                 !
 ! D6    D(2,1,4,6)           -115.316          -DE/DX =    0.0                 !
 ! D7    D(2,1,4,14)             4.1115         -DE/DX =    0.0                 !
 ! D8    D(3,1,4,5)            -20.4426         -DE/DX =    0.0                 !
 ! D9    D(3,1,4,6)            101.7623         -DE/DX =    0.0                 !
 ! D10   D(3,1,4,14)          -138.8102         -DE/DX =    0.0                 !
 ! D11   D(10,1,4,5)           -90.0419         -DE/DX =    0.0                 !
 ! D12   D(10,1,4,6)            32.163          -DE/DX =    0.0                 !
 ! D13   D(10,1,4,14)          151.5905         -DE/DX =    0.0                 !
 ! D14   D(5,4,7,8)           -135.4523         -DE/DX =    0.0                 !
 ! D15   D(5,4,7,9)            -22.423          -DE/DX =    0.0                 !
 ! D16   D(6,4,7,8)            -13.1471         -DE/DX =    0.0                 !
 ! D17   D(6,4,7,9)             99.8822         -DE/DX =    0.0                 !
 ! D18   D(14,4,7,8)           107.7792         -DE/DX =    0.0                 !
 ! D19   D(14,4,7,9)          -139.1915         -DE/DX =    0.0                 !
 ! D20   D(2,1,7,8)            102.9545         -DE/DX =    0.0                 !
 ! D21   D(2,1,7,9)           -143.9731         -DE/DX =    0.0                 !
 ! D22   D(3,1,7,8)           -112.932          -DE/DX =    0.0                 !
 ! D23   D(3,1,7,9)              0.1404         -DE/DX =    0.0                 !
 ! D24   D(10,1,7,8)           -45.1954         -DE/DX =    0.0                 !
 ! D25   D(10,1,7,9)            67.877          -DE/DX =    0.0                 !
 ! D26   D(2,1,10,11)          -54.8419         -DE/DX =    0.0                 !
 ! D27   D(2,1,10,12)           76.049          -DE/DX =    0.0                 !
 ! D28   D(2,1,10,13)         -168.9799         -DE/DX =    0.0                 !
 ! D29   D(3,1,10,11)          117.6345         -DE/DX =    0.0                 !
 ! D30   D(3,1,10,12)         -111.4745         -DE/DX =    0.0                 !
 ! D31   D(3,1,10,13)            3.4966         -DE/DX =    0.0                 !
 ! D32   D(4,1,10,11)         -136.304          -DE/DX =    0.0                 !
 ! D33   D(4,1,10,12)           -5.4131         -DE/DX =    0.0                 !
 ! D34   D(4,1,10,13)          109.558          -DE/DX =    0.0                 !
 ! D35   D(7,1,10,11)           48.9226         -DE/DX =    0.0                 !
 ! D36   D(7,1,10,12)          179.8135         -DE/DX =    0.0                 !
 ! D37   D(7,1,10,13)          -65.2154         -DE/DX =    0.0                 !
 ! D38   D(1,2,14,4)             3.6906         -DE/DX =    0.0                 !
 ! D39   D(1,4,14,2)            -3.8976         -DE/DX =    0.0                 !
 ! D40   D(5,4,14,2)          -122.4485         -DE/DX =    0.0                 !
 ! D41   D(6,4,14,2)           118.0908         -DE/DX =    0.0                 !
 --------------------------------------------------------------------------------
 GradGradGradGradGradGradGradGradGradGradGradGradGradGradGradGradGradGrad

 Leave Link  103 at Mon Dec 28 13:24:45 2020, MaxMem=  4026531840 cpu:         0.6
 (Enter /home/scicons/Gaussian09.D01/l9999.exe)
 1\1\GINC-CU05\Freq\RB3LYP\def2TZVP\Cl2H8N2O1Pt1\LIJUN\28-Dec-2020\0\\#
 P Geom=AllCheck Guess=TCheck SCRF=Check GenChk RB3LYP/def2TZVP Freq\\G
 enerated from Sexy Viewer\\0,1\Pt,-0.7099596468,-0.3199324203,0.106959
 4554\Cl,-2.3776599542,-1.8965340227,-0.1491859458\Cl,-0.2781076907,2.2
 815404033,0.9499209896\N,-0.7021224791,-0.2232631276,-1.9138367537\H,-
 0.8849324287,0.7316202469,-2.2129932637\H,0.1720771001,-0.5411718832,-
 2.321137358\O,-0.8931551838,-0.2598738823,2.1917925471\H,-0.2010202137
 ,-0.7411219219,2.6620825146\H,-0.709683663,0.7209849827,2.2621391744\N
 ,1.7740173355,0.1647592155,0.124390641\H,2.3035702087,-0.4138841097,0.
 7659402367\H,2.3005804922,0.2247333129,-0.7404311971\H,1.6641216658,1.
 1035909783,0.5095901993\H,-1.4577255422,-0.8314477719,-2.2352312399\\V
 ersion=ES64L-G09RevD.01\State=1-A\HF=-1229.6067929\RMSD=5.283e-09\RMSF
 =8.233e-06\ZeroPoint=0.1045116\Thermal=0.1157361\Dipole=2.2558314,-0.8
 008123,-1.3302687\DipoleDeriv=0.8854953,0.2326363,-0.0777882,0.341691,
 0.912628,0.3477899,-0.0403895,0.4181058,1.071673,-0.6501908,-0.2689963
 ,-0.032324,-0.2693448,-0.698122,-0.0943858,-0.0431845,-0.0715565,-0.35
 89231,-0.5999183,-0.1184303,0.0100486,0.0377227,-1.1699229,-0.1600155,
 0.0654296,-0.1541531,-0.6687211,-0.0674294,-0.0382652,0.0513076,-0.035
 2331,-0.0264159,0.1293911,-0.0021043,0.0113278,-0.4786397,0.1838783,0.
 0056676,0.0250086,-0.0020579,0.172834,0.009775,0.0190328,-0.0245352,0.
 1765584,0.1426356,0.003937,0.0470694,0.0135566,0.1803349,0.0116547,0.0
 084432,0.0193725,0.158859,-0.1535923,-0.0865617,0.1333749,-0.1021024,-
 0.5366883,0.2074511,0.0367088,-0.04936,-0.9601662,0.2205703,0.0434441,
 -0.0299575,0.0076768,0.2546109,-0.0771652,0.004723,-0.0532439,0.301650
 5,0.2152512,0.0707483,-0.1296375,0.1265254,0.6280001,-0.2418866,-0.078
 6381,-0.0835123,0.3633102,-0.8697292,0.0906417,0.0660324,-0.0047861,-0
 .432713,-0.1242255,0.0572657,-0.1051307,-0.1812443,0.1132641,0.0740489
 ,0.0066114,0.0337524,0.17055,0.0200643,-0.0441997,0.0395076,0.1163655,
 0.0701011,0.0440977,0.0661838,-0.0180069,0.1698693,0.031028,0.0728193,
 0.0079999,0.0964008,0.3296192,-0.0841802,-0.0416747,-0.1550771,0.19253
 8,0.0417686,-0.0716945,0.0346757,0.1108729,0.1800449,0.0312123,-0.0942
 548,0.0256834,0.182497,-0.1012442,0.0157882,0.0105022,0.252004\Polar=9
 7.7982362,16.4636025,105.1674527,1.8786292,9.0962093,89.703616\PG=C01 
 [X(Cl2H8N2O1Pt1)]\NImag=1\\0.12482471,0.08697455,0.13630059,0.01767353
 ,0.00165161,0.29250443,-0.05398271,-0.05565881,-0.00470820,0.06735767,
 -0.05805812,-0.04591820,0.00220976,0.06159809,0.05847886,-0.01116064,-
 0.00564089,-0.02267265,0.00436056,0.00331597,0.01802373,-0.00613611,-0
 .00087089,0.00077071,-0.00025592,-0.00332873,-0.00075275,0.01570823,-0
 .01822942,-0.00200416,0.00794450,0.00125388,-0.00728403,-0.00296864,-0
 .00321942,0.04532167,-0.00747860,0.00512980,-0.00962890,0.00021781,-0.
 00459731,0.00042342,-0.00487412,-0.00500748,0.00711087,-0.04794494,-0.
 00061658,-0.00515196,-0.00265821,-0.00568367,0.01018294,0.00018927,0.0
 0032682,-0.00059957,0.67864655,-0.00146646,-0.05269463,0.00033315,-0.0
 0460491,-0.00168181,0.01066787,0.00054861,0.00203539,-0.00052549,-0.00
 146880,0.68192658,0.00441904,0.00521594,-0.11865957,0.00181787,0.00191
 274,-0.00130485,-0.00020750,-0.00125038,0.00099471,-0.03043678,0.00626
 767,0.36628488,-0.00009048,-0.00022860,-0.00216470,-0.00027763,0.00012
 948,0.00098278,-0.00043003,0.00006554,0.00048870,-0.07388989,0.0585719
 9,-0.01598053,0.06955273,-0.00116885,0.00354512,0.00475949,-0.00000779
 ,-0.00026542,0.00051794,-0.00007613,-0.00127340,0.00065967,0.05898957,
 -0.36966770,0.08988793,-0.06455990,0.39415725,-0.00347808,0.02127066,-
 0.00867279,-0.00019880,-0.00065792,-0.00032776,-0.00006391,-0.00110247
 ,0.00119420,-0.02179514,0.11780811,-0.06753088,0.01845809,-0.10500595,
 0.07159752,0.00450903,-0.00204411,0.00333880,-0.00025789,-0.00018709,0
 .00063114,-0.00028165,0.00017163,0.00014147,-0.32199792,0.09504767,0.1
 1597979,-0.00407074,-0.00019739,0.00191976,0.34548045,-0.00196160,0.00
 036158,-0.00206577,0.00017126,-0.00037321,0.00065249,-0.00023189,-0.00
 000158,0.00008724,0.09344339,-0.09581546,-0.04240765,0.03341453,-0.008
 35297,-0.01634957,-0.10469381,0.09380550,0.01834812,-0.00639610,-0.008
 98338,-0.00032263,0.00000207,-0.00006521,-0.00023629,0.00036421,0.0004
 4390,0.14311457,-0.05333989,-0.09416896,-0.01180515,0.00337718,0.00324
 726,-0.13313322,0.04874571,0.09699241,-0.03497888,0.00229044,0.0091192
 1,0.00140310,0.00071938,-0.00286389,0.00374589,-0.00537381,0.00385598,
 0.01232520,-0.00176192,-0.00408898,0.00033709,-0.00005010,0.00082297,-
 0.00037322,0.00032936,-0.00286328,0.33540768,0.00753965,-0.04367764,-0
 .00081071,0.00069618,0.00198064,-0.00324374,-0.00780258,-0.02308131,0.
 02455098,-0.00313741,0.01371774,-0.00075290,-0.00008459,-0.00080982,-0
 .00371775,0.00009471,0.00006550,0.00152664,-0.10054815,0.54507140,0.01
 916447,0.00626102,-0.08062248,-0.00322362,-0.00330639,0.00164161,0.002
 08630,0.00706902,0.00049812,-0.00066187,-0.00180511,-0.01126695,0.0002
 0443,-0.00139172,-0.00150325,-0.00115319,0.00051774,-0.00213210,0.1882
 7287,-0.08470218,0.26526904,0.00169458,-0.00362199,-0.00192004,-0.0002
 3245,-0.00002193,-0.00015472,-0.00085910,-0.00071701,0.00090545,0.0001
 0594,0.00049374,0.00156658,0.00000237,0.00007003,-0.00000912,0.0001105
 1,0.00003139,0.00022356,-0.26901279,0.18763542,-0.18095855,0.26531631,
 -0.00296085,0.00181259,0.00375222,-0.00012272,-0.00042068,0.00031430,-
 0.00168260,-0.00140547,0.00072125,0.00076329,-0.00017753,-0.00151588,0
 .00003497,-0.00005193,-0.00002272,-0.00008417,0.00010788,-0.00036019,0
 .14868274,-0.15576808,0.09287024,-0.17805531,0.16785770,-0.01381056,0.
 00874547,-0.00448236,0.00046324,0.00022229,0.00014815,0.00014901,-0.00
 044870,0.00031353,0.00325272,-0.00232976,-0.00205348,0.00005925,0.0000
 0948,0.00047810,-0.00025384,0.00012412,-0.00103108,-0.17103450,0.11107
 873,-0.13514645,0.17574423,-0.11613601,0.13986851,0.00207515,0.0028029
 4,0.00126034,-0.00010913,-0.00030881,-0.00014833,-0.00522781,0.0019139
 2,-0.00314691,0.00003354,-0.00038182,0.00038762,0.00009831,0.00016430,
 0.00026534,0.00006690,0.00004325,0.00006970,-0.05043850,-0.08340090,-0
 .02521102,0.00385560,0.03349504,0.00422428,0.04992433,-0.00395988,0.00
 529211,-0.01508343,-0.00011175,-0.00238153,-0.00025723,0.00498368,0.00
 050508,-0.01532351,0.00019424,0.00057802,0.00345695,0.00020822,0.00086
 197,0.00077034,0.00026206,0.00008856,0.00059308,-0.04421831,-0.3376836
 0,-0.01681812,-0.00561953,-0.01210946,-0.00149795,0.04598029,0.3450449
 9,-0.00111013,-0.02344737,-0.01350572,0.00049906,0.00124871,-0.0001771
 8,-0.00114357,0.00031530,-0.00056711,0.00003561,0.00297646,-0.00167609
 ,-0.00001400,-0.00022536,-0.00090127,-0.00005439,0.00000887,0.00002468
 ,-0.02384355,-0.04535234,-0.03454582,0.00419996,0.02015536,0.00138622,
 0.02185491,0.04417130,0.04953445,0.00628783,-0.01937230,-0.00883752,-0
 .00715765,0.00319035,0.00082499,-0.00543807,0.01685998,0.00790700,-0.0
 0152231,-0.00099423,-0.00016795,-0.00003719,0.00023267,0.00044231,-0.0
 0017536,0.00015541,-0.00045697,0.00018939,-0.00153579,0.00053393,-0.00
 020265,0.00004007,-0.00000062,0.00034358,0.00265844,-0.00117965,0.3022
 1227,-0.00416074,-0.00687370,0.00064755,-0.00362840,-0.00043438,-0.000
 76243,0.01082338,-0.00642969,-0.00526238,0.00009205,0.00051055,0.00005
 511,-0.00048574,-0.00026240,-0.00032452,0.00054242,-0.00071031,0.00052
 697,-0.00001431,0.00141477,0.00043854,0.00005343,-0.00016680,-0.000068
 55,-0.00026446,-0.00214794,0.00056112,-0.16443640,0.58209269,-0.004878
 66,0.00137897,-0.01282757,0.00033240,-0.00050041,0.00230995,0.00408512
 ,-0.00457657,0.00259842,-0.00287491,-0.00121864,-0.00084620,0.00014399
 ,-0.00000307,0.00007937,0.00016188,0.00013163,0.00191980,0.00181814,0.
 00031044,0.00016141,-0.00027445,-0.00020937,0.00080570,-0.00062457,-0.
 00020758,0.00046769,-0.06317220,-0.03414962,0.63793197,0.00125253,0.00
 009690,-0.00392751,-0.00031831,0.00020892,0.00060409,-0.00113573,0.002
 17223,0.00202555,-0.00020393,-0.00043346,0.00003285,0.00006474,0.00010
 330,0.00015446,-0.00016575,0.00013861,0.00015566,0.00066064,-0.0006592
 4,0.00002923,-0.00075486,-0.00007332,0.00091199,-0.00005182,0.00124670
 ,-0.00020141,-0.13700289,0.14655686,-0.13707941,0.13397721,0.00113445,
 -0.00009133,-0.00295096,-0.00045638,-0.00004072,0.00035527,0.00134467,
 0.00028518,-0.00045202,-0.00034990,-0.00039691,-0.00002528,0.00009353,
 0.00001288,0.00008351,0.00002654,0.00027905,0.00020062,0.00018323,-0.0
 0014111,-0.00011259,0.00004168,0.00040203,0.00025743,0.00023854,0.0000
 5359,0.00004196,0.11096854,-0.16351002,0.12345043,-0.13142872,0.178970
 27,-0.00016737,-0.00039794,0.00051762,0.00014011,0.00000395,0.00006451
 ,0.00052357,-0.00026601,-0.00064007,-0.00015671,-0.00010807,-0.0001101
 9,0.00008772,0.00001048,-0.00000463,0.00008335,0.00028435,0.00016912,-
 0.00027606,0.00023500,-0.00014661,0.00046938,0.00011799,-0.00017340,0.
 00014624,-0.00037550,0.00013116,-0.10997564,0.13676523,-0.20684580,0.1
 2401928,-0.14805245,0.21621050,0.00335372,-0.00215995,0.00315749,-0.00
 106269,0.00039358,-0.00059503,-0.00085813,0.00296703,0.00054725,0.0007
 2379,0.00060753,0.00023207,-0.00032489,0.00011119,-0.00013360,-0.00114
 405,-0.00066806,-0.00162597,-0.00020773,-0.00035838,-0.00020361,-0.000
 12731,0.00001555,-0.00018912,0.00018933,0.00047166,-0.00032688,-0.1351
 3652,0.00403809,0.19840345,0.00852009,0.00092654,-0.02209720,0.1307084
 6,0.00136759,-0.00122049,0.00118329,-0.00060397,-0.00000363,-0.0002835
 9,0.00133230,-0.00066169,0.00058065,0.00011231,0.00010237,0.00025245,0
 .00023541,0.00012455,0.00001405,-0.00059488,0.00028001,-0.00072209,-0.
 00020602,-0.00000411,-0.00000121,0.00010441,0.00000105,-0.00022276,-0.
 00005186,-0.00005715,0.00000569,-0.00234085,-0.05429257,0.03353734,-0.
 01488132,-0.00106671,0.02047862,-0.00188082,0.04925296,0.00230037,-0.0
 0067367,0.00149046,-0.00065505,-0.00001900,-0.00022609,0.00067274,0.00
 012400,0.00022062,0.00014709,0.00029943,0.00057516,-0.00010469,0.00002
 741,0.00000889,-0.00023286,-0.00036497,-0.00043186,-0.00015521,-0.0000
 0995,-0.00001908,-0.00007997,-0.00002084,-0.00002416,-0.00003164,0.000
 01119,-0.00002741,0.15189922,0.01865743,-0.31283832,0.01624311,-0.0005
 6311,-0.02097562,-0.17790594,-0.02244114,0.34435009,-0.00215485,-0.008
 01961,-0.00411005,-0.00181316,0.00001685,0.00016586,0.00112363,0.00213
 034,-0.00011079,-0.00006722,-0.00034038,0.00013816,-0.00009480,-0.0001
 2446,-0.00018126,0.00021870,-0.00007134,0.00041480,0.00053388,0.001499
 53,0.00004643,0.00010958,-0.00019347,0.00029867,-0.00079355,-0.0021016
 7,0.00120894,-0.02228883,0.01107736,0.00395677,-0.00486125,0.01730973,
 0.00719406,-0.00457348,0.01740002,0.00790223,0.03475825,-0.00719370,0.
 00286522,0.00181852,0.00059505,-0.00116764,-0.00029338,-0.00164351,-0.
 00576769,-0.00054103,0.00008471,0.00035842,-0.00016237,-0.00003253,0.0
 0010592,0.00000778,-0.00029406,-0.00005577,-0.00027299,-0.00001796,-0.
 00127475,-0.00008564,-0.00040915,-0.00021221,0.00020890,-0.00023985,0.
 00193207,-0.00052621,0.05486249,-0.34912471,-0.11841184,-0.00307794,-0
 .01482117,-0.00877923,-0.00401014,0.00770127,0.00515547,-0.03863035,0.
 35951216,-0.00236322,0.00106218,0.00193956,0.00023836,-0.00046323,-0.0
 0013315,-0.00118728,-0.00076558,-0.00322210,0.00002279,0.00010052,-0.0
 0030157,-0.00019331,-0.00003765,-0.00003924,0.00009363,-0.00011642,0.0
 0006229,-0.00043339,-0.00031597,-0.00025230,0.00015798,0.00038960,-0.0
 0011829,0.00098567,0.00013757,-0.00040421,0.02191812,-0.11721221,-0.11
 258718,-0.00290063,0.02779232,0.01180328,0.00067910,-0.03243660,-0.012
 11049,-0.01694223,0.12185156,0.11535104,0.00129041,0.00042801,-0.00450
 012,-0.00063502,0.00133170,-0.00207700,-0.00014448,-0.00032172,0.00012
 077,-0.24373987,-0.14381756,-0.07369226,0.00916039,0.00651354,0.003796
 99,-0.02191901,-0.02010051,-0.01188290,0.00040823,0.00006157,0.0010742
 2,-0.00000573,0.00014078,0.00018526,0.00003407,0.00000586,0.00007511,-
 0.00007161,-0.00019355,0.00000245,0.00001933,-0.00003245,0.00000926,-0
 .00006059,0.00000767,0.00000059,-0.00009689,0.00000694,-0.00007560,0.2
 5576075,0.00214337,0.00230292,-0.00338922,0.00088027,-0.00048827,-0.00
 237394,-0.00017688,-0.00023831,-0.00002037,-0.14275002,-0.17879506,-0.
 06093434,-0.02736232,-0.01812406,-0.01277355,0.01195048,0.01032123,0.0
 0575480,-0.00001457,0.00019037,0.00106641,0.00001482,0.00013091,0.0000
 5731,0.00000941,0.00002329,0.00006651,-0.00028838,-0.00006548,0.000468
 28,0.00003049,0.00006498,0.00008357,-0.00045383,-0.00015587,-0.0001822
 3,0.00004745,-0.00005111,0.00001389,0.15596971,0.18488445,-0.01745828,
 -0.01415969,-0.01639666,0.00103889,0.00062877,0.00229552,0.00017796,0.
 00056880,0.00026040,-0.09507878,-0.07912626,-0.06993602,0.00983742,0.0
 0741418,0.00237446,0.01247768,0.01075223,0.00395311,0.00166969,0.00120
 375,-0.00193514,0.00012971,-0.00005595,0.00002901,-0.00003164,0.000422
 87,0.00026062,0.00026500,0.00012777,-0.00032925,-0.00006726,-0.0000251
 1,0.00000011,0.00005797,0.00005530,0.00000781,0.00001841,0.00003045,0.
 00001238,0.08696323,0.07216290,0.07940363\\-0.00000062,0.00000146,0.00
 000481,-0.00000090,-0.00000057,0.00001970,0.00000276,0.00000520,-0.000
 01075,-0.00000844,-0.00001014,0.00000638,-0.00000917,-0.00001135,-0.00
 000158,-0.00000953,-0.00001171,0.00000137,0.00001114,0.00001032,0.0000
 0436,0.00001107,0.00001418,0.00000485,0.00000916,0.00001221,-0.0000006
 7,0.00000083,-0.00000006,-0.00000769,0.00000343,0.00000329,-0.00000817
 ,-0.00000325,-0.00000444,-0.00001011,0.00000215,0.00000379,-0.00001278
 ,-0.00000862,-0.00001219,0.00001027\\\@


 WHEN IT COMES TO CASH FLOW, IT SEEMS LIKE THE TIDE IS ALWAYS GOING OUT.
 Job cpu time:       0 days  0 hours 47 minutes  1.6 seconds.
 File lengths (MBytes):  RWF=    109 Int=      0 D2E=      0 Chk=      7 Scr=      1
 Normal termination of Gaussian 09 at Mon Dec 28 13:24:45 2020.
