 Entering Gaussian System, Link 0=g09
 Input=pt-n-cl-h2o-sub-nh3.gjf
 Output=pt-n-cl-h2o-sub-nh3.log
 Initial command:
 /home/scicons/Gaussian09.D01/l1.exe "/tmp/tmp.TqdInToZHx/Gau-46896.inp" -scrdir="/tmp/tmp.TqdInToZHx/"
 Default is to use a total of   4 processors:
                                4 via shared-memory
                                1 via Linda
 Entering Link 1 = /home/scicons/Gaussian09.D01/l1.exe PID=     46897.
  
 Copyright (c) 1988,1990,1992,1993,1995,1998,2003,2009,2013,
            Gaussian, Inc.  All Rights Reserved.
  
 This is part of the Gaussian(R) 09 program.  It is based on
 the Gaussian(R) 03 system (copyright 2003, Gaussian, Inc.),
 the Gaussian(R) 98 system (copyright 1998, Gaussian, Inc.),
 the Gaussian(R) 94 system (copyright 1995, Gaussian, Inc.),
 the Gaussian 92(TM) system (copyright 1992, Gaussian, Inc.),
 the Gaussian 90(TM) system (copyright 1990, Gaussian, Inc.),
 the Gaussian 88(TM) system (copyright 1988, Gaussian, Inc.),
 the Gaussian 86(TM) system (copyright 1986, Carnegie Mellon
 University), and the Gaussian 82(TM) system (copyright 1983,
 Carnegie Mellon University). Gaussian is a federally registered
 trademark of Gaussian, Inc.
  
 This software contains proprietary and confidential information,
 including trade secrets, belonging to Gaussian, Inc.
  
 This software is provided under written license and may be
 used, copied, transmitted, or stored only in accord with that
 written license.
  
 The following legend is applicable only to US Government
 contracts under FAR:
  
                    RESTRICTED RIGHTS LEGEND
  
 Use, reproduction and disclosure by the US Government is
 subject to restrictions as set forth in subparagraphs (a)
 and (c) of the Commercial Computer Software - Restricted
 Rights clause in FAR 52.227-19.
  
 Gaussian, Inc.
 340 Quinnipiac St., Bldg. 40, Wallingford CT 06492
  
  
 ---------------------------------------------------------------
 Warning -- This program may not be used in any manner that
 competes with the business of Gaussian, Inc. or will provide
 assistance to any competitor of Gaussian, Inc.  The licensee
 of this program is prohibited from giving any competitor of
 Gaussian, Inc. access to this program.  By using this program,
 the user acknowledges that Gaussian, Inc. is engaged in the
 business of creating and licensing software in the field of
 computational chemistry and represents and warrants to the
 licensee that it is not a competitor of Gaussian, Inc. and that
 it will not use this program in any manner prohibited above.
 ---------------------------------------------------------------
  

 Cite this work as:
 Gaussian 09, Revision D.01,
 M. J. Frisch, G. W. Trucks, H. B. Schlegel, G. E. Scuseria, 
 M. A. Robb, J. R. Cheeseman, G. Scalmani, V. Barone, B. Mennucci, 
 G. A. Petersson, H. Nakatsuji, M. Caricato, X. Li, H. P. Hratchian, 
 A. F. Izmaylov, J. Bloino, G. Zheng, J. L. Sonnenberg, M. Hada, 
 M. Ehara, K. Toyota, R. Fukuda, J. Hasegawa, M. Ishida, T. Nakajima, 
 Y. Honda, O. Kitao, H. Nakai, T. Vreven, J. A. Montgomery, Jr., 
 J. E. Peralta, F. Ogliaro, M. Bearpark, J. J. Heyd, E. Brothers, 
 K. N. Kudin, V. N. Staroverov, T. Keith, R. Kobayashi, J. Normand, 
 K. Raghavachari, A. Rendell, J. C. Burant, S. S. Iyengar, J. Tomasi, 
 M. Cossi, N. Rega, J. M. Millam, M. Klene, J. E. Knox, J. B. Cross, 
 V. Bakken, C. Adamo, J. Jaramillo, R. Gomperts, R. E. Stratmann, 
 O. Yazyev, A. J. Austin, R. Cammi, C. Pomelli, J. W. Ochterski, 
 R. L. Martin, K. Morokuma, V. G. Zakrzewski, G. A. Voth, 
 P. Salvador, J. J. Dannenberg, S. Dapprich, A. D. Daniels, 
 O. Farkas, J. B. Foresman, J. V. Ortiz, J. Cioslowski, 
 and D. J. Fox, Gaussian, Inc., Wallingford CT, 2013.
 
 ******************************************
 Gaussian 09:  ES64L-G09RevD.01 24-Apr-2013
                28-Dec-2020 
 ******************************************
 %nprocshared=24
 Will use up to   24 processors via shared memory.
 %mem=30GB
 %chk=pt-n-cl-h2o-sub-nh3.chk
 ----------------------------------------------------------------------
 #p opt=(calcall,ts,noeigen) b3lyp scrf=(smd,solvent=water) geom=connec
 tivity def2tzvp em=gd3bj
 ----------------------------------------------------------------------
 1/5=1,10=4,11=1,14=-1,18=20,26=3,38=1,57=2/1,3;
 2/9=110,12=2,17=6,18=5,40=1/2;
 3/5=44,7=101,11=2,16=1,25=1,30=1,70=32201,71=2,72=1,74=-5,124=41,140=1/1,2,3;
 4//1;
 5/5=2,38=5,53=1/2;
 8/6=4,10=90,11=11/1;
 11/6=1,8=1,9=11,15=111,16=1/1,2,10;
 10/6=1/2;
 6/7=2,8=2,9=2,10=2,18=1,28=1/1;
 7/10=1,25=1/1,2,3,16;
 1/5=1,10=4,11=1,14=-1,18=20,26=3/3(3);
 2/9=110/2;
 7/8=1,9=1,25=1,44=-1/16;
 99//99;
 2/9=110/2;
 3/5=44,7=101,11=2,16=1,25=1,30=1,70=32205,71=2,72=1,74=-5,124=41,140=1/1,2,3;
 4/5=5,16=3,69=1/1;
 5/5=2,38=5,53=1/2;
 8/6=4,10=90,11=11/1;
 11/6=1,8=1,9=11,15=111,16=1/1,2,10;
 10/6=1/2;
 7/10=1,25=1/1,2,3,16;
 1/5=1,10=4,11=1,14=-1,18=20,26=3/3(-8);
 2/9=110/2;
 6/7=2,8=2,9=2,10=2,18=1,19=2,28=1/1;
 7/8=1,9=1,25=1,44=-1/16;
 99//99;
 Leave Link    1 at Mon Dec 28 11:33:11 2020, MaxMem=  4026531840 cpu:         2.3
 (Enter /home/scicons/Gaussian09.D01/l101.exe)
 -------------------
 Title Card Required
 -------------------
 Symbolic Z-matrix:
 Charge =  0 Multiplicity = 1
 Pt                    0.42942   0.04607  -0.00967 
 N                     0.42942   0.04607   1.98033 
 H                     0.90083  -0.77042   2.31366 
 H                     0.90083   0.86257   2.31366 
 N                     0.14041   2.26739  -0.00967 
 H                     0.82032   2.79314  -0.52085 
 H                    -0.75588   2.37393  -0.44015 
 Cl                   -0.71058  -1.92846  -0.00967 
 Cl                    0.42942   0.04607  -2.28967 
 O                     2.45857   0.89623  -0.00967 
 H                     2.53167   1.85334   0.00446 
 H                     2.88225   0.55459  -0.80048 
 H                    -0.51338   0.04607   2.31366 
 H                     0.09976   2.6015    0.93199 
 
 NAtoms=     14 NQM=       14 NQMF=       0 NMMI=      0 NMMIF=      0
                NMic=       0 NMicF=      0.
                    Isotopes and Nuclear Properties:
 (Nuclear quadrupole moments (NQMom) in fm**2, nuclear magnetic moments (NMagM)
  in nuclear magnetons)

  Atom         1           2           3           4           5           6           7           8           9          10
 IAtWgt=         195          14           1           1          14           1           1          35          35          16
 AtmWgt= 194.9648000  14.0030740   1.0078250   1.0078250  14.0030740   1.0078250   1.0078250  34.9688527  34.9688527  15.9949146
 NucSpn=           1           2           1           1           2           1           1           3           3           0
 AtZEff=   0.0000000   0.0000000   0.0000000   0.0000000   0.0000000   0.0000000   0.0000000   0.0000000   0.0000000   0.0000000
 NQMom=    0.0000000   2.0440000   0.0000000   0.0000000   2.0440000   0.0000000   0.0000000  -8.1650000  -8.1650000   0.0000000
 NMagM=    0.6095000   0.4037610   2.7928460   2.7928460   0.4037610   2.7928460   2.7928460   0.8218740   0.8218740   0.0000000
 AtZNuc=  78.0000000   7.0000000   1.0000000   1.0000000   7.0000000   1.0000000   1.0000000  17.0000000  17.0000000   8.0000000

  Atom        11          12          13          14
 IAtWgt=           1           1           1           1
 AtmWgt=   1.0078250   1.0078250   1.0078250   1.0078250
 NucSpn=           1           1           1           1
 AtZEff=   0.0000000   0.0000000   0.0000000   0.0000000
 NQMom=    0.0000000   0.0000000   0.0000000   0.0000000
 NMagM=    2.7928460   2.7928460   2.7928460   2.7928460
 AtZNuc=   1.0000000   1.0000000   1.0000000   1.0000000
 Leave Link  101 at Mon Dec 28 11:33:12 2020, MaxMem=  4026531840 cpu:         8.4
 (Enter /home/scicons/Gaussian09.D01/l103.exe)

 GradGradGradGradGradGradGradGradGradGradGradGradGradGradGradGradGradGrad
 Berny optimization.
 Initialization pass.
                           ----------------------------
                           !    Initial Parameters    !
                           ! (Angstroms and Degrees)  !
 --------------------------                            --------------------------
 ! Name  Definition              Value          Derivative Info.                !
 --------------------------------------------------------------------------------
 ! R1    R(1,2)                  1.99           calculate D2E/DX2 analytically  !
 ! R2    R(1,5)                  2.24           calculate D2E/DX2 analytically  !
 ! R3    R(1,8)                  2.28           calculate D2E/DX2 analytically  !
 ! R4    R(1,9)                  2.28           calculate D2E/DX2 analytically  !
 ! R5    R(1,10)                 2.2            calculate D2E/DX2 analytically  !
 ! R6    R(2,3)                  1.0            calculate D2E/DX2 analytically  !
 ! R7    R(2,4)                  1.0            calculate D2E/DX2 analytically  !
 ! R8    R(2,13)                 1.0            calculate D2E/DX2 analytically  !
 ! R9    R(5,6)                  1.0            calculate D2E/DX2 analytically  !
 ! R10   R(5,7)                  1.0            calculate D2E/DX2 analytically  !
 ! R11   R(5,14)                 1.0            calculate D2E/DX2 analytically  !
 ! R12   R(10,11)                0.96           calculate D2E/DX2 analytically  !
 ! R13   R(10,12)                0.96           calculate D2E/DX2 analytically  !
 ! A1    A(2,1,5)               90.0            calculate D2E/DX2 analytically  !
 ! A2    A(2,1,8)               90.0            calculate D2E/DX2 analytically  !
 ! A3    A(2,1,10)              90.0            calculate D2E/DX2 analytically  !
 ! A4    A(5,1,8)              142.5868         calculate D2E/DX2 analytically  !
 ! A5    A(5,1,9)               90.0            calculate D2E/DX2 analytically  !
 ! A6    A(5,1,10)              74.6809         calculate D2E/DX2 analytically  !
 ! A7    A(8,1,9)               90.0            calculate D2E/DX2 analytically  !
 ! A8    A(8,1,10)             142.7323         calculate D2E/DX2 analytically  !
 ! A9    A(9,1,10)              90.0            calculate D2E/DX2 analytically  !
 ! A10   A(1,2,3)              109.4712         calculate D2E/DX2 analytically  !
 ! A11   A(1,2,4)              109.4712         calculate D2E/DX2 analytically  !
 ! A12   A(1,2,13)             109.4712         calculate D2E/DX2 analytically  !
 ! A13   A(3,2,4)              109.4712         calculate D2E/DX2 analytically  !
 ! A14   A(3,2,13)             109.4712         calculate D2E/DX2 analytically  !
 ! A15   A(4,2,13)             109.4712         calculate D2E/DX2 analytically  !
 ! A16   A(1,5,6)              115.6983         calculate D2E/DX2 analytically  !
 ! A17   A(1,5,7)              102.7851         calculate D2E/DX2 analytically  !
 ! A18   A(1,5,14)             109.6676         calculate D2E/DX2 analytically  !
 ! A19   A(6,5,7)              109.4712         calculate D2E/DX2 analytically  !
 ! A20   A(6,5,14)             109.4712         calculate D2E/DX2 analytically  !
 ! A21   A(7,5,14)             109.4712         calculate D2E/DX2 analytically  !
 ! A22   A(1,10,11)            117.0962         calculate D2E/DX2 analytically  !
 ! A23   A(1,10,12)            105.6361         calculate D2E/DX2 analytically  !
 ! A24   A(11,10,12)           109.4712         calculate D2E/DX2 analytically  !
 ! A25   L(2,1,9,5,-1)         180.0            calculate D2E/DX2 analytically  !
 ! A26   L(2,1,9,5,-2)         180.0            calculate D2E/DX2 analytically  !
 ! D1    D(5,1,2,3)           -157.4132         calculate D2E/DX2 analytically  !
 ! D2    D(5,1,2,4)            -37.4132         calculate D2E/DX2 analytically  !
 ! D3    D(5,1,2,13)            82.5868         calculate D2E/DX2 analytically  !
 ! D4    D(8,1,2,3)             60.0            calculate D2E/DX2 analytically  !
 ! D5    D(8,1,2,4)           -180.0            calculate D2E/DX2 analytically  !
 ! D6    D(8,1,2,13)           -60.0            calculate D2E/DX2 analytically  !
 ! D7    D(10,1,2,3)           -82.7323         calculate D2E/DX2 analytically  !
 ! D8    D(10,1,2,4)            37.2677         calculate D2E/DX2 analytically  !
 ! D9    D(10,1,2,13)          157.2677         calculate D2E/DX2 analytically  !
 ! D10   D(2,1,5,6)            124.5614         calculate D2E/DX2 analytically  !
 ! D11   D(2,1,5,7)           -116.1947         calculate D2E/DX2 analytically  !
 ! D12   D(2,1,5,14)             0.1703         calculate D2E/DX2 analytically  !
 ! D13   D(8,1,5,6)           -145.4386         calculate D2E/DX2 analytically  !
 ! D14   D(8,1,5,7)            -26.1947         calculate D2E/DX2 analytically  !
 ! D15   D(8,1,5,14)            90.1703         calculate D2E/DX2 analytically  !
 ! D16   D(9,1,5,6)            -55.4386         calculate D2E/DX2 analytically  !
 ! D17   D(9,1,5,7)             63.8053         calculate D2E/DX2 analytically  !
 ! D18   D(9,1,5,14)          -179.8297         calculate D2E/DX2 analytically  !
 ! D19   D(10,1,5,6)            34.5614         calculate D2E/DX2 analytically  !
 ! D20   D(10,1,5,7)           153.8053         calculate D2E/DX2 analytically  !
 ! D21   D(10,1,5,14)          -89.8297         calculate D2E/DX2 analytically  !
 ! D22   D(2,1,10,11)          -89.0524         calculate D2E/DX2 analytically  !
 ! D23   D(2,1,10,12)          148.8056         calculate D2E/DX2 analytically  !
 ! D24   D(5,1,10,11)            0.9476         calculate D2E/DX2 analytically  !
 ! D25   D(5,1,10,12)         -121.1944         calculate D2E/DX2 analytically  !
 ! D26   D(8,1,10,11)         -179.0524         calculate D2E/DX2 analytically  !
 ! D27   D(8,1,10,12)           58.8056         calculate D2E/DX2 analytically  !
 ! D28   D(9,1,10,11)           90.9476         calculate D2E/DX2 analytically  !
 ! D29   D(9,1,10,12)          -31.1944         calculate D2E/DX2 analytically  !
 --------------------------------------------------------------------------------
 Trust Radius=3.00D-01 FncErr=1.00D-07 GrdErr=1.00D-06
 Number of steps in this run=     78 maximum allowed number of steps=    100.
 Search for a saddle point of order  1.
 GradGradGradGradGradGradGradGradGradGradGradGradGradGradGradGradGradGrad

 Leave Link  103 at Mon Dec 28 11:33:12 2020, MaxMem=  4026531840 cpu:         0.2
 (Enter /home/scicons/Gaussian09.D01/l202.exe)
                          Input orientation:                          
 ---------------------------------------------------------------------
 Center     Atomic      Atomic             Coordinates (Angstroms)
 Number     Number       Type             X           Y           Z
 ---------------------------------------------------------------------
      1         78           0        0.429425    0.046074   -0.009671
      2          7           0        0.429425    0.046074    1.980329
      3          1           0        0.900829   -0.770423    2.313662
      4          1           0        0.900829    0.862570    2.313662
      5          7           0        0.140406    2.267391   -0.009671
      6          1           0        0.820319    2.793142   -0.520849
      7          1           0       -0.755885    2.373934   -0.440150
      8         17           0       -0.710575   -1.928464   -0.009671
      9         17           0        0.429425    0.046074   -2.289671
     10          8           0        2.458575    0.896230   -0.009671
     11          1           0        2.531667    1.853339    0.004462
     12          1           0        2.882252    0.554586   -0.800479
     13          1           0       -0.513384    0.046073    2.313662
     14          1           0        0.099757    2.601501    0.931986
 ---------------------------------------------------------------------
                    Distance matrix (angstroms):
                    1          2          3          4          5
     1  Pt   0.000000
     2  N    1.990000   0.000000
     3  H    2.507343   1.000000   0.000000
     4  H    2.507343   1.000000   1.632993   0.000000
     5  N    2.240041   2.996312   3.899287   2.819511   0.000000
     6  H    2.821434   3.735650   4.554112   3.430458   1.000000
     7  H    2.647491   3.561265   4.496128   3.551394   1.000000
     8  Cl   2.280000   3.026301   3.055415   3.972956   4.281282
     9  Cl   2.280000   4.270000   4.698890   4.698890   3.196276
    10  O    2.200049   2.966533   3.256099   2.797425   2.693324
    11  H    2.772333   3.404362   3.856963   2.995607   2.426885
    12  H    2.626847   3.742705   3.921678   3.703886   3.328183
    13  H    2.507343   1.000000   1.632993   1.632993   3.280179
    14  H    2.743284   2.781711   3.731034   2.361065   1.000000
                    6          7          8          9         10
     6  H    0.000000
     7  H    1.632993   0.000000
     8  Cl   4.989841   4.324118   0.000000
     9  Cl   3.290580   3.200722   3.224407   0.000000
    10  O    2.558019   3.563941   4.245281   3.168378   0.000000
    11  H    2.021854   3.358079   4.981402   3.598427   0.960000
    12  H    3.056288   4.083614   4.438392   2.914214   0.960000
    13  H    4.166487   3.614032   3.055415   4.698890   3.866935
    14  H    1.632993   1.632993   4.697227   4.125284   3.059198
                   11         12         13         14
    11  H    0.000000
    12  H    1.567673   0.000000
    13  H    4.227405   4.635386   0.000000
    14  H    2.708179   3.864399   2.969038   0.000000
 Stoichiometry    Cl2H8N2OPt
 Framework group  C1[X(Cl2H8N2OPt)]
 Deg. of freedom    36
 Full point group                 C1      NOp   1
 Largest Abelian subgroup         C1      NOp   1
 Largest concise Abelian subgroup C1      NOp   1
                         Standard orientation:                         
 ---------------------------------------------------------------------
 Center     Atomic      Atomic             Coordinates (Angstroms)
 Number     Number       Type             X           Y           Z
 ---------------------------------------------------------------------
      1         78           0        0.006438   -0.131676   -0.008661
      2          7           0       -0.104598   -2.118265   -0.043830
      3          1           0       -0.605458   -2.409748   -0.858800
      4          1           0        0.818047   -2.503381   -0.064111
      5          7           0        1.802095   -0.255647    1.324768
      6          1           0        2.619921    0.216523    0.995806
      7          1           0        1.482653    0.178515    2.167063
      8         17           0       -2.269778   -0.005068    0.026139
      9         17           0        0.133656    2.144415    0.031633
     10          8           0        1.735373   -0.204260   -1.367239
     11          1           0        2.604495   -0.274106   -0.965556
     12          1           0        1.687938    0.599804   -1.889571
     13          1           0       -0.582180   -2.439951    0.773748
     14          1           0        2.021013   -1.214369    1.506223
 ---------------------------------------------------------------------
 Rotational constants (GHZ):      1.5936900      1.3772091      0.9234720
 Leave Link  202 at Mon Dec 28 11:33:12 2020, MaxMem=  4026531840 cpu:         0.2
 (Enter /home/scicons/Gaussian09.D01/l301.exe)
 Standard basis: def2TZVP (5D, 7F)
 Ernie: Thresh=  0.10000D-02 Tol=  0.10000D-05 Strict=F.
 There are   286 symmetry adapted cartesian basis functions of A   symmetry.
 There are   255 symmetry adapted basis functions of A   symmetry.
   255 basis functions,   430 primitive gaussians,   286 cartesian basis functions
    41 alpha electrons       41 beta electrons
       nuclear repulsion energy       548.5787013664 Hartrees.
 IExCor=  402 DFT=T Ex+Corr=B3LYP ExCW=0 ScaHFX=  0.200000
 ScaDFX=  0.800000  0.720000  1.000000  0.810000 ScalE2=  1.000000  1.000000
 IRadAn=      0 IRanWt=     -1 IRanGd=            0 ICorTp=0 IEmpDi=141
 NAtoms=   14 NActive=   14 NUniq=   14 SFac= 1.00D+00 NAtFMM=   60 NAOKFM=F Big=F
 Integral buffers will be    131072 words long.
 Raffenetti 2 integral format.
 Two-electron integral symmetry is turned on.
 R6Disp:  Grimme-D3(BJ) Dispersion energy=       -0.0291211954 Hartrees.
 Nuclear repulsion after empirical dispersion term =      548.5495801710 Hartrees.
 Force inversion solution in PCM.
 ------------------------------------------------------------------------------
 Polarizable Continuum Model (PCM)
 =================================
 Model                : PCM (using non-symmetric T matrix).
 Atomic radii         : SMD-Coulomb.
 Polarization charges : Total charges.
 Charge compensation  : None.
 Solution method      : Matrix inversion.
 Cavity type          : VdW (van der Waals Surface) (Alpha=1.000).
 Cavity algorithm     : GePol (No added spheres)
                        Default sphere list used, NSphG=   14.
                        Lebedev-Laikov grids with approx.  5.0 points / Ang**2.
                        Smoothing algorithm: Karplus/York (Gamma=1.0000).
                        Polarization charges: spherical gaussians, with
                                              point-specific exponents (IZeta= 3).
                        Self-potential: point-specific (ISelfS= 7).
                        Self-field    : sphere-specific E.n sum rule (ISelfD= 2).
 1st derivatives      : Analytical E(r).r(x)/FMM algorithm (CHGder, D1EAlg=3).
                        Cavity 1st derivative terms included.
 2nd derivatives      : Analytical E(r).r(xy)/FMM algorithm (CHGder, D2EAlg=3).
                        Cavity 2nd derivative terms included.
 Solvent              : Water, Eps=  78.355300 Eps(inf)=   1.777849
 ------------------------------------------------------------------------------
 Spheres list:
 ISph  on   Nord     Re0    Alpha      Xe            Ye            Ze
    1  Pt      1    1.7500  1.000      0.006438     -0.131676     -0.008661
    2   N      2    1.8900  1.000     -0.104598     -2.118265     -0.043830
    3   H      3    1.2000  1.000     -0.605458     -2.409748     -0.858800
    4   H      4    1.2000  1.000      0.818047     -2.503381     -0.064111
    5   N      5    1.8900  1.000      1.802095     -0.255647      1.324768
    6   H      6    1.2000  1.000      2.619921      0.216523      0.995806
    7   H      7    1.2000  1.000      1.482653      0.178515      2.167063
    8  Cl      8    2.3800  1.000     -2.269778     -0.005068      0.026139
    9  Cl      9    2.3800  1.000      0.133656      2.144415      0.031633
   10   O     10    1.5200  1.000      1.735373     -0.204260     -1.367239
   11   H     11    1.2000  1.000      2.604495     -0.274106     -0.965556
   12   H     12    1.2000  1.000      1.687938      0.599804     -1.889571
   13   H     13    1.2000  1.000     -0.582180     -2.439951      0.773748
   14   H     14    1.2000  1.000      2.021013     -1.214369      1.506223
 ------------------------------------------------------------------------------
 GePol: Number of generator spheres                  =      14
 GePol: Total number of spheres                      =      14
 GePol: Number of exposed spheres                    =      14 (100.00%)
 GePol: Number of points                             =    1373
 GePol: Average weight of points                     =       0.14
 GePol: Minimum weight of points                     =   0.22D-08
 GePol: Maximum weight of points                     =    0.21991
 GePol: Number of points with low weight             =      45
 GePol: Fraction of low-weight points (<1% of avg)   =       3.28%
 GePol: Cavity surface area                          =    185.595 Ang**2
 GePol: Cavity volume                                =    172.226 Ang**3
 ------------------------------------------------------------------------------
 Atomic radii for non-electrostatic terms: SMD-CDS.
 ------------------------------------------------------------------------------
 PCM non-electrostatic energy =         0.0085922495 Hartrees.
 Nuclear repulsion after PCM non-electrostatic terms =      548.5581724204 Hartrees.
 Leave Link  301 at Mon Dec 28 11:33:12 2020, MaxMem=  4026531840 cpu:         1.9
 (Enter /home/scicons/Gaussian09.D01/l302.exe)
 NPDir=0 NMtPBC=     1 NCelOv=     1 NCel=       1 NClECP=     1 NCelD=      1
         NCelK=      1 NCelE2=     1 NClLst=     1 CellRange=     0.0.
 One-electron integrals computed using PRISM.
   1 Symmetry operations used in ECPInt.
 ECPInt:  NShTT=    5565 NPrTT=   17197 LenC2=    5375 LenP2D=   12842.
 LDataN:  DoStor=T MaxTD1= 8 Len=  415
 NBasis=   255 RedAO= T EigKep=  2.31D-03  NBF=   255
 NBsUse=   255 1.00D-06 EigRej= -1.00D+00 NBFU=   255
 Precomputing XC quadrature grid using
 IXCGrd= 4 IRadAn=           0 IRanWt=          -1 IRanGd=           0 AccXCQ= 0.00D+00.
 Defaulting to unpruned grid for atomic number  78.
 Generated NRdTot=       0 NPtTot=           0 NUsed=           0 NTot=          32
 NSgBfM=   284   284   284   284   284 MxSgAt=    14 MxSgA2=    14.
 Leave Link  302 at Mon Dec 28 11:33:12 2020, MaxMem=  4026531840 cpu:         7.4
 (Enter /home/scicons/Gaussian09.D01/l303.exe)
 DipDrv:  MaxL=1.
 Leave Link  303 at Mon Dec 28 11:33:12 2020, MaxMem=  4026531840 cpu:         0.7
 (Enter /home/scicons/Gaussian09.D01/l401.exe)
 ExpMin= 4.92D-02 ExpMax= 6.95D+04 ExpMxC= 2.37D+03 IAcc=2 IRadAn=         4 AccDes= 0.00D+00
 Harris functional with IExCor=  402 and IRadAn=       4 diagonalized for initial guess.
 HarFok:  IExCor=  402 AccDes= 0.00D+00 IRadAn=         4 IDoV= 1 UseB2=F ITyADJ=14
 ICtDFT=  3500011 ScaDFX=  1.000000  1.000000  1.000000  1.000000
 Defaulting to unpruned grid for atomic number  78.
 Defaulting to unpruned grid for atomic number  78.
 Defaulting to unpruned grid for atomic number  78.
 Defaulting to unpruned grid for atomic number  78.
 Defaulting to unpruned grid for atomic number  78.
 Defaulting to unpruned grid for atomic number  78.
 Defaulting to unpruned grid for atomic number  78.
 Defaulting to unpruned grid for atomic number  78.
 Defaulting to unpruned grid for atomic number  78.
 Defaulting to unpruned grid for atomic number  78.
 Defaulting to unpruned grid for atomic number  78.
 Defaulting to unpruned grid for atomic number  78.
 Defaulting to unpruned grid for atomic number  78.
 Defaulting to unpruned grid for atomic number  78.
 Defaulting to unpruned grid for atomic number  78.
 Defaulting to unpruned grid for atomic number  78.
 Defaulting to unpruned grid for atomic number  78.
 Defaulting to unpruned grid for atomic number  78.
 Defaulting to unpruned grid for atomic number  78.
 Defaulting to unpruned grid for atomic number  78.
 Defaulting to unpruned grid for atomic number  78.
 Defaulting to unpruned grid for atomic number  78.
 Defaulting to unpruned grid for atomic number  78.
 Defaulting to unpruned grid for atomic number  78.
 FoFCou: FMM=F IPFlag=           0 FMFlag=      100000 FMFlg1=           0
         NFxFlg=           0 DoJE=T BraDBF=F KetDBF=T FulRan=T
         wScrn=  0.000000 ICntrl=     500 IOpCl=  0 I1Cent=   200000004 NGrid=           0
         NMat0=    1 NMatS0=      1 NMatT0=    0 NMatD0=    1 NMtDS0=    0 NMtDT0=    0
 Petite list used in FoFCou.
 Harris En= -1229.17859917512    
 JPrj=0 DoOrth=F DoCkMO=F.
 Leave Link  401 at Mon Dec 28 11:33:13 2020, MaxMem=  4026531840 cpu:         7.4
 (Enter /home/scicons/Gaussian09.D01/l502.exe)
 Closed shell SCF:
 Using DIIS extrapolation, IDIIS=  1040.
 Integral symmetry usage will be decided dynamically.
 Keep R1 ints in memory in canonical form, NReq=544793834.
 IVT=      272906 IEndB=      272906 NGot=  4026531840 MDV=  3493557815
 LenX=  3493557815 LenY=  3493475578
 Requested convergence on RMS density matrix=1.00D-08 within 128 cycles.
 Requested convergence on MAX density matrix=1.00D-06.
 Requested convergence on             energy=1.00D-06.
 No special actions if energy rises.
 FoFCou: FMM=F IPFlag=           0 FMFlag=           0 FMFlg1=           0
         NFxFlg=           0 DoJE=F BraDBF=F KetDBF=F FulRan=T
         wScrn=  0.000000 ICntrl=     600 IOpCl=  0 I1Cent=           0 NGrid=           0
         NMat0=    1 NMatS0=  32640 NMatT0=    0 NMatD0=    1 NMtDS0=    0 NMtDT0=    0
 Symmetry not used in FoFCou.

 Cycle   1  Pass 1  IDiag  1:
 Defaulting to unpruned grid for atomic number  78.
 Defaulting to unpruned grid for atomic number  78.
 Defaulting to unpruned grid for atomic number  78.
 Defaulting to unpruned grid for atomic number  78.
 Defaulting to unpruned grid for atomic number  78.
 Defaulting to unpruned grid for atomic number  78.
 Defaulting to unpruned grid for atomic number  78.
 Defaulting to unpruned grid for atomic number  78.
 Defaulting to unpruned grid for atomic number  78.
 Defaulting to unpruned grid for atomic number  78.
 Defaulting to unpruned grid for atomic number  78.
 Defaulting to unpruned grid for atomic number  78.
 Defaulting to unpruned grid for atomic number  78.
 Defaulting to unpruned grid for atomic number  78.
 Defaulting to unpruned grid for atomic number  78.
 Defaulting to unpruned grid for atomic number  78.
 Defaulting to unpruned grid for atomic number  78.
 Defaulting to unpruned grid for atomic number  78.
 Defaulting to unpruned grid for atomic number  78.
 Defaulting to unpruned grid for atomic number  78.
 Defaulting to unpruned grid for atomic number  78.
 Defaulting to unpruned grid for atomic number  78.
 Defaulting to unpruned grid for atomic number  78.
 Defaulting to unpruned grid for atomic number  78.
 Inv3:  Mode=1 IEnd=     5655387.
 Iteration    1 A*A^-1 deviation from unit magnitude is 4.66D-15 for   1349.
 Iteration    1 A*A^-1 deviation from orthogonality  is 3.20D-15 for    716    381.
 Iteration    1 A^-1*A deviation from unit magnitude is 5.33D-15 for   1349.
 Iteration    1 A^-1*A deviation from orthogonality  is 7.47D-11 for    374    355.
 E= -1229.19586116537    
 DIIS: error= 2.84D-02 at cycle   1 NSaved=   1.
 NSaved= 1 IEnMin= 1 EnMin= -1229.19586116537     IErMin= 1 ErrMin= 2.84D-02
 ErrMax= 2.84D-02  0.00D+00 EMaxC= 1.00D-01 BMatC= 6.92D-01 BMatP= 6.92D-01
 IDIUse=3 WtCom= 7.16D-01 WtEn= 2.84D-01
 Coeff-Com:  0.100D+01
 Coeff-En:   0.100D+01
 Coeff:      0.100D+01
 Gap=     0.360 Goal=   None    Shift=    0.000
 GapD=    0.360 DampG=1.000 DampE=0.250 DampFc=0.2500 IDamp=-1.
 Damping current iteration by 2.50D-01
 RMSDP=5.51D-03 MaxDP=3.81D-01              OVMax= 4.80D-01

 Cycle   2  Pass 1  IDiag  1:
 E= -1229.36154856793     Delta-E=       -0.165687402553 Rises=F Damp=T
 DIIS: error= 1.52D-02 at cycle   2 NSaved=   2.
 NSaved= 2 IEnMin= 2 EnMin= -1229.36154856793     IErMin= 2 ErrMin= 1.52D-02
 ErrMax= 1.52D-02  0.00D+00 EMaxC= 1.00D-01 BMatC= 1.02D-01 BMatP= 6.92D-01
 IDIUse=3 WtCom= 8.48D-01 WtEn= 1.52D-01
 Coeff-Com: -0.483D+00 0.148D+01
 Coeff-En:   0.000D+00 0.100D+01
 Coeff:     -0.409D+00 0.141D+01
 Gap=     0.164 Goal=   None    Shift=    0.000
 RMSDP=1.17D-03 MaxDP=8.71D-02 DE=-1.66D-01 OVMax= 3.31D-01

 Cycle   3  Pass 1  IDiag  1:
 E= -1229.62464601458     Delta-E=       -0.263097446651 Rises=F Damp=F
 DIIS: error= 3.71D-03 at cycle   3 NSaved=   3.
 NSaved= 3 IEnMin= 3 EnMin= -1229.62464601458     IErMin= 3 ErrMin= 3.71D-03
 ErrMax= 3.71D-03  0.00D+00 EMaxC= 1.00D-01 BMatC= 7.92D-03 BMatP= 1.02D-01
 IDIUse=3 WtCom= 9.63D-01 WtEn= 3.71D-02
 Coeff-Com: -0.161D+00 0.422D+00 0.739D+00
 Coeff-En:   0.000D+00 0.000D+00 0.100D+01
 Coeff:     -0.155D+00 0.406D+00 0.749D+00
 Gap=     0.134 Goal=   None    Shift=    0.000
 RMSDP=5.59D-04 MaxDP=2.01D-02 DE=-2.63D-01 OVMax= 3.04D-02

 Cycle   4  Pass 1  IDiag  1:
 E= -1229.62717261909     Delta-E=       -0.002526604511 Rises=F Damp=F
 DIIS: error= 4.00D-03 at cycle   4 NSaved=   4.
 NSaved= 4 IEnMin= 4 EnMin= -1229.62717261909     IErMin= 3 ErrMin= 3.71D-03
 ErrMax= 4.00D-03  0.00D+00 EMaxC= 1.00D-01 BMatC= 5.71D-03 BMatP= 7.92D-03
 IDIUse=3 WtCom= 9.60D-01 WtEn= 4.00D-02
 Coeff-Com: -0.462D-01 0.970D-01 0.464D+00 0.485D+00
 Coeff-En:   0.000D+00 0.000D+00 0.398D+00 0.602D+00
 Coeff:     -0.444D-01 0.931D-01 0.462D+00 0.490D+00
 Gap=     0.133 Goal=   None    Shift=    0.000
 RMSDP=2.37D-04 MaxDP=9.27D-03 DE=-2.53D-03 OVMax= 1.40D-02

 Cycle   5  Pass 1  IDiag  1:
 E= -1229.63128284144     Delta-E=       -0.004110222352 Rises=F Damp=F
 DIIS: error= 5.36D-04 at cycle   5 NSaved=   5.
 NSaved= 5 IEnMin= 5 EnMin= -1229.63128284144     IErMin= 5 ErrMin= 5.36D-04
 ErrMax= 5.36D-04  0.00D+00 EMaxC= 1.00D-01 BMatC= 1.62D-04 BMatP= 5.71D-03
 IDIUse=3 WtCom= 9.95D-01 WtEn= 5.36D-03
 Coeff-Com: -0.163D-01 0.323D-01 0.193D+00 0.232D+00 0.559D+00
 Coeff-En:   0.000D+00 0.000D+00 0.000D+00 0.000D+00 0.100D+01
 Coeff:     -0.162D-01 0.321D-01 0.192D+00 0.231D+00 0.561D+00
 Gap=     0.133 Goal=   None    Shift=    0.000
 RMSDP=5.26D-05 MaxDP=2.26D-03 DE=-4.11D-03 OVMax= 3.16D-03

 Cycle   6  Pass 1  IDiag  1:
 E= -1229.63140186774     Delta-E=       -0.000119026300 Rises=F Damp=F
 DIIS: error= 2.00D-04 at cycle   6 NSaved=   6.
 NSaved= 6 IEnMin= 6 EnMin= -1229.63140186774     IErMin= 6 ErrMin= 2.00D-04
 ErrMax= 2.00D-04  0.00D+00 EMaxC= 1.00D-01 BMatC= 1.78D-05 BMatP= 1.62D-04
 IDIUse=3 WtCom= 9.98D-01 WtEn= 2.00D-03
 Coeff-Com:  0.825D-03-0.357D-02 0.210D-01 0.315D-01 0.258D+00 0.693D+00
 Coeff-En:   0.000D+00 0.000D+00 0.000D+00 0.000D+00 0.195D-01 0.981D+00
 Coeff:      0.824D-03-0.356D-02 0.210D-01 0.314D-01 0.257D+00 0.693D+00
 Gap=     0.133 Goal=   None    Shift=    0.000
 RMSDP=1.53D-05 MaxDP=5.98D-04 DE=-1.19D-04 OVMax= 1.22D-03

 Cycle   7  Pass 1  IDiag  1:
 E= -1229.63141444194     Delta-E=       -0.000012574195 Rises=F Damp=F
 DIIS: error= 2.39D-05 at cycle   7 NSaved=   7.
 NSaved= 7 IEnMin= 7 EnMin= -1229.63141444194     IErMin= 7 ErrMin= 2.39D-05
 ErrMax= 2.39D-05  0.00D+00 EMaxC= 1.00D-01 BMatC= 3.56D-07 BMatP= 1.78D-05
 IDIUse=1 WtCom= 1.00D+00 WtEn= 0.00D+00
 Coeff-Com:  0.677D-03-0.145D-02 0.235D-03 0.113D-02 0.544D-01 0.178D+00
 Coeff-Com:  0.767D+00
 Coeff:      0.677D-03-0.145D-02 0.235D-03 0.113D-02 0.544D-01 0.178D+00
 Coeff:      0.767D+00
 Gap=     0.133 Goal=   None    Shift=    0.000
 RMSDP=4.51D-06 MaxDP=2.46D-04 DE=-1.26D-05 OVMax= 4.00D-04

 Cycle   8  Pass 1  IDiag  1:
 E= -1229.63141459802     Delta-E=       -0.000000156088 Rises=F Damp=F
 DIIS: error= 2.26D-05 at cycle   8 NSaved=   8.
 NSaved= 8 IEnMin= 8 EnMin= -1229.63141459802     IErMin= 8 ErrMin= 2.26D-05
 ErrMax= 2.26D-05  0.00D+00 EMaxC= 1.00D-01 BMatC= 2.99D-07 BMatP= 3.56D-07
 IDIUse=1 WtCom= 1.00D+00 WtEn= 0.00D+00
 Coeff-Com:  0.385D-03-0.457D-03-0.358D-02-0.495D-02-0.112D-01-0.156D-01
 Coeff-Com:  0.508D+00 0.527D+00
 Coeff:      0.385D-03-0.457D-03-0.358D-02-0.495D-02-0.112D-01-0.156D-01
 Coeff:      0.508D+00 0.527D+00
 Gap=     0.133 Goal=   None    Shift=    0.000
 RMSDP=1.85D-06 MaxDP=7.05D-05 DE=-1.56D-07 OVMax= 1.52D-04

 Cycle   9  Pass 1  IDiag  1:
 E= -1229.63141484930     Delta-E=       -0.000000251280 Rises=F Damp=F
 DIIS: error= 2.21D-06 at cycle   9 NSaved=   9.
 NSaved= 9 IEnMin= 9 EnMin= -1229.63141484930     IErMin= 9 ErrMin= 2.21D-06
 ErrMax= 2.21D-06  0.00D+00 EMaxC= 1.00D-01 BMatC= 2.91D-09 BMatP= 2.99D-07
 IDIUse=1 WtCom= 1.00D+00 WtEn= 0.00D+00
 Coeff-Com:  0.476D-04-0.204D-04-0.104D-02-0.153D-02-0.571D-02-0.128D-01
 Coeff-Com:  0.112D+00 0.130D+00 0.780D+00
 Coeff:      0.476D-04-0.204D-04-0.104D-02-0.153D-02-0.571D-02-0.128D-01
 Coeff:      0.112D+00 0.130D+00 0.780D+00
 Gap=     0.133 Goal=   None    Shift=    0.000
 RMSDP=4.32D-07 MaxDP=2.17D-05 DE=-2.51D-07 OVMax= 5.18D-05

 Cycle  10  Pass 1  IDiag  1:
 E= -1229.63141485275     Delta-E=       -0.000000003445 Rises=F Damp=F
 DIIS: error= 1.05D-06 at cycle  10 NSaved=  10.
 NSaved=10 IEnMin=10 EnMin= -1229.63141485275     IErMin=10 ErrMin= 1.05D-06
 ErrMax= 1.05D-06  0.00D+00 EMaxC= 1.00D-01 BMatC= 7.83D-10 BMatP= 2.91D-09
 IDIUse=1 WtCom= 1.00D+00 WtEn= 0.00D+00
 Coeff-Com: -0.338D-04 0.512D-04 0.669D-05-0.736D-05-0.918D-03-0.287D-02
 Coeff-Com: -0.227D-01-0.240D-01 0.327D+00 0.724D+00
 Coeff:     -0.338D-04 0.512D-04 0.669D-05-0.736D-05-0.918D-03-0.287D-02
 Coeff:     -0.227D-01-0.240D-01 0.327D+00 0.724D+00
 Gap=     0.133 Goal=   None    Shift=    0.000
 RMSDP=1.96D-07 MaxDP=6.99D-06 DE=-3.45D-09 OVMax= 1.68D-05

 Cycle  11  Pass 1  IDiag  1:
 E= -1229.63141485363     Delta-E=       -0.000000000880 Rises=F Damp=F
 DIIS: error= 3.14D-07 at cycle  11 NSaved=  11.
 NSaved=11 IEnMin=11 EnMin= -1229.63141485363     IErMin=11 ErrMin= 3.14D-07
 ErrMax= 3.14D-07  0.00D+00 EMaxC= 1.00D-01 BMatC= 5.39D-11 BMatP= 7.83D-10
 IDIUse=1 WtCom= 1.00D+00 WtEn= 0.00D+00
 Coeff-Com: -0.131D-04 0.159D-04 0.879D-04 0.130D-03 0.159D-03 0.138D-03
 Coeff-Com: -0.173D-01-0.197D-01 0.402D-01 0.254D+00 0.742D+00
 Coeff:     -0.131D-04 0.159D-04 0.879D-04 0.130D-03 0.159D-03 0.138D-03
 Coeff:     -0.173D-01-0.197D-01 0.402D-01 0.254D+00 0.742D+00
 Gap=     0.133 Goal=   None    Shift=    0.000
 RMSDP=5.23D-08 MaxDP=2.14D-06 DE=-8.80D-10 OVMax= 5.77D-06

 Cycle  12  Pass 1  IDiag  1:
 E= -1229.63141485369     Delta-E=       -0.000000000057 Rises=F Damp=F
 DIIS: error= 9.54D-08 at cycle  12 NSaved=  12.
 NSaved=12 IEnMin=12 EnMin= -1229.63141485369     IErMin=12 ErrMin= 9.54D-08
 ErrMax= 9.54D-08  0.00D+00 EMaxC= 1.00D-01 BMatC= 5.15D-12 BMatP= 5.39D-11
 IDIUse=1 WtCom= 1.00D+00 WtEn= 0.00D+00
 Coeff-Com:  0.427D-06-0.152D-05 0.307D-04 0.496D-04 0.155D-03 0.355D-03
 Coeff-Com: -0.326D-02-0.379D-02-0.209D-01 0.833D-02 0.236D+00 0.783D+00
 Coeff:      0.427D-06-0.152D-05 0.307D-04 0.496D-04 0.155D-03 0.355D-03
 Coeff:     -0.326D-02-0.379D-02-0.209D-01 0.833D-02 0.236D+00 0.783D+00
 Gap=     0.133 Goal=   None    Shift=    0.000
 RMSDP=1.59D-08 MaxDP=7.77D-07 DE=-5.68D-11 OVMax= 1.88D-06

 Cycle  13  Pass 1  IDiag  1:
 E= -1229.63141485369     Delta-E=       -0.000000000004 Rises=F Damp=F
 DIIS: error= 1.75D-08 at cycle  13 NSaved=  13.
 NSaved=13 IEnMin=13 EnMin= -1229.63141485369     IErMin=13 ErrMin= 1.75D-08
 ErrMax= 1.75D-08  0.00D+00 EMaxC= 1.00D-01 BMatC= 2.76D-13 BMatP= 5.15D-12
 IDIUse=1 WtCom= 1.00D+00 WtEn= 0.00D+00
 Coeff-Com:  0.799D-06-0.117D-05 0.212D-05 0.655D-05 0.309D-04 0.990D-04
 Coeff-Com:  0.246D-03 0.248D-03-0.711D-02-0.126D-01 0.123D-01 0.199D+00
 Coeff-Com:  0.808D+00
 Coeff:      0.799D-06-0.117D-05 0.212D-05 0.655D-05 0.309D-04 0.990D-04
 Coeff:      0.246D-03 0.248D-03-0.711D-02-0.126D-01 0.123D-01 0.199D+00
 Coeff:      0.808D+00
 Gap=     0.133 Goal=   None    Shift=    0.000
 RMSDP=4.41D-09 MaxDP=2.32D-07 DE=-4.09D-12 OVMax= 5.93D-07

 Error on total polarization charges =  0.02325
 SCF Done:  E(RB3LYP) =  -1229.63141485     A.U. after   13 cycles
            NFock= 13  Conv=0.44D-08     -V/T= 2.0701
 KE= 1.149030498729D+03 PE=-3.983371083553D+03 EE= 1.056150997551D+03
 SMD-CDS (non-electrostatic) energy       (kcal/mol) =       5.39
 (included in total energy above)
 Leave Link  502 at Mon Dec 28 11:34:01 2020, MaxMem=  4026531840 cpu:       247.7
 (Enter /home/scicons/Gaussian09.D01/l801.exe)
 DoSCS=F DFT=T ScalE2(SS,OS)=  1.000000  1.000000
 Range of M.O.s used for correlation:     1   255
 NBasis=   255 NAE=    41 NBE=    41 NFC=     0 NFV=     0
 NROrb=    255 NOA=    41 NOB=    41 NVA=   214 NVB=   214
 Leave Link  801 at Mon Dec 28 11:34:01 2020, MaxMem=  4026531840 cpu:         0.5
 (Enter /home/scicons/Gaussian09.D01/l1101.exe)
 Using compressed storage, NAtomX=    14.
 Will process     15 centers per pass.
   1 Symmetry operations used in ECPInt.
 ECPInt:  NShTT=    5565 NPrTT=   17197 LenC2=    5375 LenP2D=   12842.
 LDataN:  DoStor=T MaxTD1= 9 Len=  602
 R6Disp: Adding Grimme-D3(BJ) dispersion energy 1st derivatives to the gradient.
 Leave Link 1101 at Mon Dec 28 11:34:03 2020, MaxMem=  4026531840 cpu:        26.6
 (Enter /home/scicons/Gaussian09.D01/l1102.exe)
 Symmetrizing basis deriv contribution to polar:
 IMax=3 JMax=2 DiffMx= 0.00D+00
 Leave Link 1102 at Mon Dec 28 11:34:03 2020, MaxMem=  4026531840 cpu:         0.7
 (Enter /home/scicons/Gaussian09.D01/l1110.exe)
 Forming Gx(P) for the SCF density, NAtomX=    14.
 Integral derivatives from FoFJK, PRISM(SPDF).
 Do as many integral derivatives as possible in FoFJK.
 G2DrvN: MDV=    4026531624.
 G2DrvN: will do    15 centers at a time, making    1 passes.
 Calling FoFCou, ICntrl=  3107 FMM=F I1Cent=   0 AccDes= 0.00D+00.
 FoFJK:  IHMeth= 1 ICntrl=    3107 DoSepK=F KAlg= 0 I1Cent=   0 FoldK=F
 IRaf=         0 NMat=   1 IRICut=       1 DoRegI=T DoRafI=F ISym2E= 0.
 FoFCou: FMM=F IPFlag=           0 FMFlag=      100000 FMFlg1=           0
         NFxFlg=           0 DoJE=F BraDBF=F KetDBF=F FulRan=T
         wScrn=  0.000000 ICntrl=    3107 IOpCl=  0 I1Cent=           0 NGrid=           0
         NMat0=    1 NMatS0=      1 NMatT0=    0 NMatD0=    1 NMtDS0=    0 NMtDT0=    0
 Symmetry not used in FoFCou.
 Defaulting to unpruned grid for atomic number  78.
 Defaulting to unpruned grid for atomic number  78.
 Defaulting to unpruned grid for atomic number  78.
 Defaulting to unpruned grid for atomic number  78.
 Defaulting to unpruned grid for atomic number  78.
 Defaulting to unpruned grid for atomic number  78.
 Defaulting to unpruned grid for atomic number  78.
 Defaulting to unpruned grid for atomic number  78.
 Defaulting to unpruned grid for atomic number  78.
 Defaulting to unpruned grid for atomic number  78.
 Defaulting to unpruned grid for atomic number  78.
 Defaulting to unpruned grid for atomic number  78.
 Defaulting to unpruned grid for atomic number  78.
 Defaulting to unpruned grid for atomic number  78.
 Defaulting to unpruned grid for atomic number  78.
 Defaulting to unpruned grid for atomic number  78.
 Defaulting to unpruned grid for atomic number  78.
 Defaulting to unpruned grid for atomic number  78.
 Defaulting to unpruned grid for atomic number  78.
 Defaulting to unpruned grid for atomic number  78.
 Defaulting to unpruned grid for atomic number  78.
 Defaulting to unpruned grid for atomic number  78.
 Defaulting to unpruned grid for atomic number  78.
 Defaulting to unpruned grid for atomic number  78.
 NEqPCM:  Using equilibrium solvation (IEInf=0, Eps=  78.3553, EpsInf=   1.7778)
 G2PCM: DoFxE=T DoFxN=T DoGrad=T DoDP/DQ/DG/TGxP=FFFF NFrqRd=   0 IEInf=0 SqF1=F DoCFld=F IF1Alg=4.
 GePol: Maximum number of non-zero 1st derivatives   =     352
 End of G2Drv F.D. properties file   721 does not exist.
 End of G2Drv F.D. properties file   722 does not exist.
 End of G2Drv F.D. properties file   788 does not exist.
 Leave Link 1110 at Mon Dec 28 11:34:18 2020, MaxMem=  4026531840 cpu:       374.6
 (Enter /home/scicons/Gaussian09.D01/l1002.exe)
 Minotr:  Closed shell wavefunction.
          IDoAtm=11111111111111
 NEqPCM:  Using equilibrium solvation (IEInf=0, Eps=  78.3553, EpsInf=   1.7778)
          Direct CPHF calculation.
          Differentiating once with respect to electric field.
                with respect to dipole field.
          Differentiating once with respect to nuclear coordinates.
          Requested convergence is 1.0D-08 RMS, and 1.0D-07 maximum.
          Secondary convergence is 1.0D-12 RMS, and 1.0D-12 maximum.
          NewPWx=T KeepS1=F KeepF1=F KeepIn=T MapXYZ=F SortEE=F KeepMc=T.
          MDV=    4026531441 using IRadAn=       2.
 Defaulting to unpruned grid for atomic number  78.
 Generate precomputed XC quadrature information.
 Keep R1 ints in memory in canonical form, NReq=544526104.
 FoFCou: FMM=F IPFlag=           0 FMFlag=           0 FMFlg1=           0
         NFxFlg=           0 DoJE=F BraDBF=F KetDBF=F FulRan=T
         wScrn=  0.000000 ICntrl=     600 IOpCl=  0 I1Cent=           0 NGrid=           0
         NMat0=    1 NMatS0=  32640 NMatT0=    0 NMatD0=    1 NMtDS0=    0 NMtDT0=    0
 Symmetry not used in FoFCou.
          Solving linear equations simultaneously, MaxMat=       0.
 Defaulting to unpruned grid for atomic number  78.
 Defaulting to unpruned grid for atomic number  78.
 Defaulting to unpruned grid for atomic number  78.
 Defaulting to unpruned grid for atomic number  78.
 Defaulting to unpruned grid for atomic number  78.
 Defaulting to unpruned grid for atomic number  78.
 Defaulting to unpruned grid for atomic number  78.
 Defaulting to unpruned grid for atomic number  78.
 Defaulting to unpruned grid for atomic number  78.
 Defaulting to unpruned grid for atomic number  78.
 Defaulting to unpruned grid for atomic number  78.
 Defaulting to unpruned grid for atomic number  78.
 Defaulting to unpruned grid for atomic number  78.
 Defaulting to unpruned grid for atomic number  78.
 Defaulting to unpruned grid for atomic number  78.
 Defaulting to unpruned grid for atomic number  78.
 Defaulting to unpruned grid for atomic number  78.
 Defaulting to unpruned grid for atomic number  78.
 Defaulting to unpruned grid for atomic number  78.
 Defaulting to unpruned grid for atomic number  78.
 Defaulting to unpruned grid for atomic number  78.
 Defaulting to unpruned grid for atomic number  78.
 Defaulting to unpruned grid for atomic number  78.
 Defaulting to unpruned grid for atomic number  78.
          There are    45 degrees of freedom in the 1st order CPHF.  IDoFFX=6 NUNeed=     3.
     42 vectors produced by pass  0 Test12= 1.95D-14 2.22D-09 XBig12= 9.37D+01 3.60D+00.
 AX will form    42 AO Fock derivatives at one time.
     42 vectors produced by pass  1 Test12= 1.95D-14 2.22D-09 XBig12= 1.68D+01 9.69D-01.
     42 vectors produced by pass  2 Test12= 1.95D-14 2.22D-09 XBig12= 4.83D-01 1.57D-01.
     42 vectors produced by pass  3 Test12= 1.95D-14 2.22D-09 XBig12= 3.60D-03 9.23D-03.
     42 vectors produced by pass  4 Test12= 1.95D-14 2.22D-09 XBig12= 3.10D-05 9.94D-04.
     41 vectors produced by pass  5 Test12= 1.95D-14 2.22D-09 XBig12= 1.59D-07 5.73D-05.
     13 vectors produced by pass  6 Test12= 1.95D-14 2.22D-09 XBig12= 3.58D-10 2.56D-06.
      3 vectors produced by pass  7 Test12= 1.95D-14 2.22D-09 XBig12= 5.21D-13 8.72D-08.
      2 vectors produced by pass  8 Test12= 1.95D-14 2.22D-09 XBig12= 8.76D-16 4.28D-09.
      1 vectors produced by pass  9 Test12= 1.95D-14 2.22D-09 XBig12= 7.11D-17 2.64D-09.
 InvSVY:  IOpt=1 It=  1 EMax= 2.13D-14
 Solved reduced A of dimension   270 with    45 vectors.
 FullF1:  Do perturbations    1 to     3.
 Isotropic polarizability for W=    0.000000      123.67 Bohr**3.
 End of Minotr F.D. properties file   721 does not exist.
 End of Minotr F.D. properties file   722 does not exist.
 End of Minotr F.D. properties file   788 does not exist.
 Leave Link 1002 at Mon Dec 28 11:34:57 2020, MaxMem=  4026531840 cpu:       829.3
 (Enter /home/scicons/Gaussian09.D01/l601.exe)
 Copying SCF densities to generalized density rwf, IOpCl= 0 IROHF=0.

 **********************************************************************

            Population analysis using the SCF density.

 **********************************************************************

 Orbital symmetries:
       Occupied  (A) (A) (A) (A) (A) (A) (A) (A) (A) (A) (A) (A)
                 (A) (A) (A) (A) (A) (A) (A) (A) (A) (A) (A) (A)
                 (A) (A) (A) (A) (A) (A) (A) (A) (A) (A) (A) (A)
                 (A) (A) (A) (A) (A)
       Virtual   (A) (A) (A) (A) (A) (A) (A) (A) (A) (A) (A) (A)
                 (A) (A) (A) (A) (A) (A) (A) (A) (A) (A) (A) (A)
                 (A) (A) (A) (A) (A) (A) (A) (A) (A) (A) (A) (A)
                 (A) (A) (A) (A) (A) (A) (A) (A) (A) (A) (A) (A)
                 (A) (A) (A) (A) (A) (A) (A) (A) (A) (A) (A) (A)
                 (A) (A) (A) (A) (A) (A) (A) (A) (A) (A) (A) (A)
                 (A) (A) (A) (A) (A) (A) (A) (A) (A) (A) (A) (A)
                 (A) (A) (A) (A) (A) (A) (A) (A) (A) (A) (A) (A)
                 (A) (A) (A) (A) (A) (A) (A) (A) (A) (A) (A) (A)
                 (A) (A) (A) (A) (A) (A) (A) (A) (A) (A) (A) (A)
                 (A) (A) (A) (A) (A) (A) (A) (A) (A) (A) (A) (A)
                 (A) (A) (A) (A) (A) (A) (A) (A) (A) (A) (A) (A)
                 (A) (A) (A) (A) (A) (A) (A) (A) (A) (A) (A) (A)
                 (A) (A) (A) (A) (A) (A) (A) (A) (A) (A) (A) (A)
                 (A) (A) (A) (A) (A) (A) (A) (A) (A) (A) (A) (A)
                 (A) (A) (A) (A) (A) (A) (A) (A) (A) (A) (A) (A)
                 (A) (A) (A) (A) (A) (A) (A) (A) (A) (A) (A) (A)
                 (A) (A) (A) (A) (A) (A) (A) (A) (A) (A)
 The electronic state is 1-A.
 Alpha  occ. eigenvalues -- -101.45169-101.44916 -19.14444 -14.35616 -14.32033
 Alpha  occ. eigenvalues --   -9.38364  -9.38216  -7.14287  -7.14083  -7.13783
 Alpha  occ. eigenvalues --   -7.13779  -7.13664  -7.13631  -3.90288  -2.16594
 Alpha  occ. eigenvalues --   -2.15044  -2.12036  -1.03478  -0.91712  -0.88504
 Alpha  occ. eigenvalues --   -0.75092  -0.74050  -0.56235  -0.52971  -0.52465
 Alpha  occ. eigenvalues --   -0.49491  -0.49218  -0.44466  -0.43220  -0.38701
 Alpha  occ. eigenvalues --   -0.35517  -0.33393  -0.32276  -0.30739  -0.30197
 Alpha  occ. eigenvalues --   -0.27952  -0.25283  -0.22258  -0.21689  -0.21396
 Alpha  occ. eigenvalues --   -0.16234
 Alpha virt. eigenvalues --   -0.02907   0.01344   0.04848   0.05471   0.07838
 Alpha virt. eigenvalues --    0.10523   0.10598   0.12711   0.13333   0.13949
 Alpha virt. eigenvalues --    0.15278   0.16846   0.17942   0.20202   0.27982
 Alpha virt. eigenvalues --    0.29072   0.30047   0.30485   0.30851   0.32574
 Alpha virt. eigenvalues --    0.33026   0.34770   0.35446   0.36310   0.37435
 Alpha virt. eigenvalues --    0.39389   0.39495   0.39742   0.40913   0.42195
 Alpha virt. eigenvalues --    0.43089   0.44234   0.46422   0.47522   0.48254
 Alpha virt. eigenvalues --    0.49591   0.50422   0.50958   0.51443   0.51734
 Alpha virt. eigenvalues --    0.52170   0.54324   0.56812   0.56945   0.57865
 Alpha virt. eigenvalues --    0.60407   0.61647   0.63182   0.63776   0.68286
 Alpha virt. eigenvalues --    0.69896   0.71307   0.73578   0.75120   0.75616
 Alpha virt. eigenvalues --    0.83900   0.92260   0.96060   0.98574   0.99003
 Alpha virt. eigenvalues --    1.03749   1.07097   1.11062   1.15239   1.22456
 Alpha virt. eigenvalues --    1.23015   1.24615   1.27347   1.29321   1.30678
 Alpha virt. eigenvalues --    1.34226   1.34530   1.39102   1.41782   1.43338
 Alpha virt. eigenvalues --    1.43676   1.45909   1.47478   1.49465   1.52320
 Alpha virt. eigenvalues --    1.54413   1.56501   1.57136   1.58543   1.60514
 Alpha virt. eigenvalues --    1.63642   1.64684   1.69802   1.74392   1.76694
 Alpha virt. eigenvalues --    1.77634   1.78996   1.79599   1.79975   1.80813
 Alpha virt. eigenvalues --    1.82626   1.84197   1.85769   1.89594   1.91160
 Alpha virt. eigenvalues --    1.91723   1.94673   1.95189   1.96280   1.99375
 Alpha virt. eigenvalues --    2.01362   2.05148   2.08083   2.11535   2.12795
 Alpha virt. eigenvalues --    2.12972   2.14188   2.14395   2.14639   2.15182
 Alpha virt. eigenvalues --    2.15282   2.15445   2.15788   2.16230   2.17211
 Alpha virt. eigenvalues --    2.19866   2.21336   2.24664   2.25480   2.27712
 Alpha virt. eigenvalues --    2.28937   2.29636   2.30447   2.32508   2.33193
 Alpha virt. eigenvalues --    2.34139   2.36217   2.38521   2.43036   2.45133
 Alpha virt. eigenvalues --    2.45361   2.48348   2.49291   2.49755   2.52286
 Alpha virt. eigenvalues --    2.55211   2.55869   2.58014   2.62049   2.63609
 Alpha virt. eigenvalues --    2.64541   2.67565   2.69849   2.73722   2.79528
 Alpha virt. eigenvalues --    2.88677   3.03858   3.06935   3.09625   3.15845
 Alpha virt. eigenvalues --    3.18659   3.20464   3.22865   3.24767   3.33686
 Alpha virt. eigenvalues --    3.66256   3.95837   4.10031   4.17620   4.29061
 Alpha virt. eigenvalues --    4.30778   4.32495   4.34158   4.41279   4.44184
 Alpha virt. eigenvalues --    4.62485   4.63915   4.66486   4.68752   4.84570
 Alpha virt. eigenvalues --    4.86184   4.86574   4.90107   4.92812   5.04651
 Alpha virt. eigenvalues --    5.10801   5.20296   5.35247   5.35893   5.36545
 Alpha virt. eigenvalues --    5.38317   5.39336   5.42048   5.50399   5.80346
 Alpha virt. eigenvalues --    5.83800   5.98976   6.24035   6.41030   6.44515
 Alpha virt. eigenvalues --    6.50895   6.95712   6.98418  10.75405  10.76491
 Alpha virt. eigenvalues --   10.77409  10.80309  10.93914  10.98303  24.80607
 Alpha virt. eigenvalues --   25.17433  28.71377  31.41343  31.60829  31.72911
 Alpha virt. eigenvalues --   31.83165  43.40616  51.99460 282.32717
          Condensed to atoms (all electrons):
               1          2          3          4          5          6
     1  Pt  17.460112   0.123711  -0.022480  -0.033348  -0.064728  -0.004661
     2  N    0.123711   6.334633   0.363764   0.364813  -0.009531   0.000896
     3  H   -0.022480   0.363764   0.391314  -0.017040   0.001332   0.000008
     4  H   -0.033348   0.364813  -0.017040   0.397385   0.001855  -0.000653
     5  N   -0.064728  -0.009531   0.001332   0.001855   6.817094   0.332110
     6  H   -0.004661   0.000896   0.000008  -0.000653   0.332110   0.419118
     7  H   -0.011475  -0.000277   0.000043  -0.000033   0.357414  -0.013390
     8  Cl   0.119772  -0.021307   0.003217   0.000620  -0.012223   0.000351
     9  Cl   0.131087  -0.011040   0.000175   0.000205  -0.024225   0.004662
    10  O   -0.072533  -0.009529  -0.002334   0.000090  -0.100194   0.007912
    11  H   -0.010272   0.000613   0.000106   0.000837   0.010367   0.003341
    12  H   -0.009148   0.000020  -0.000004  -0.000277   0.005205   0.000186
    13  H   -0.030319   0.366245  -0.020224  -0.017212  -0.002124   0.000073
    14  H   -0.014343   0.000661  -0.000437   0.002755   0.344837  -0.014573
               7          8          9         10         11         12
     1  Pt  -0.011475   0.119772   0.131087  -0.072533  -0.010272  -0.009148
     2  N   -0.000277  -0.021307  -0.011040  -0.009529   0.000613   0.000020
     3  H    0.000043   0.003217   0.000175  -0.002334   0.000106  -0.000004
     4  H   -0.000033   0.000620   0.000205   0.000090   0.000837  -0.000277
     5  N    0.357414  -0.012223  -0.024225  -0.100194   0.010367   0.005205
     6  H   -0.013390   0.000351   0.004662   0.007912   0.003341   0.000186
     7  H    0.390169  -0.000203   0.002137   0.002175  -0.000432  -0.000205
     8  Cl  -0.000203  17.514286  -0.025802  -0.004418   0.000200   0.000032
     9  Cl   0.002137  -0.025802  17.493162  -0.017757   0.000231   0.011634
    10  O    0.002175  -0.004418  -0.017757   8.240989   0.286510   0.291670
    11  H   -0.000432   0.000200   0.000231   0.286510   0.349409  -0.008929
    12  H   -0.000205   0.000032   0.011634   0.291670  -0.008929   0.331386
    13  H   -0.000056   0.002922   0.000191   0.000629  -0.000111   0.000104
    14  H   -0.015055   0.000123   0.000743   0.003110  -0.000015  -0.000158
              13         14
     1  Pt  -0.030319  -0.014343
     2  N    0.366245   0.000661
     3  H   -0.020224  -0.000437
     4  H   -0.017212   0.002755
     5  N   -0.002124   0.344837
     6  H    0.000073  -0.014573
     7  H   -0.000056  -0.015055
     8  Cl   0.002922   0.000123
     9  Cl   0.000191   0.000743
    10  O    0.000629   0.003110
    11  H   -0.000111  -0.000015
    12  H    0.000104  -0.000158
    13  H    0.394873   0.001155
    14  H    0.001155   0.406527
 Mulliken charges:
               1
     1  Pt   0.438626
     2  N   -0.503672
     3  H    0.302560
     4  H    0.300004
     5  N   -0.657190
     6  H    0.264619
     7  H    0.289187
     8  Cl  -0.577567
     9  Cl  -0.565403
    10  O   -0.626321
    11  H    0.368147
    12  H    0.378486
    13  H    0.303854
    14  H    0.284671
 Sum of Mulliken charges =   0.00000
 Mulliken charges with hydrogens summed into heavy atoms:
               1
     1  Pt   0.438626
     2  N    0.402746
     5  N    0.181286
     8  Cl  -0.577567
     9  Cl  -0.565403
    10  O    0.120312
 APT charges:
               1
     1  Pt   1.188634
     2  N   -0.437771
     3  H    0.250036
     4  H    0.231677
     5  N   -0.707031
     6  H    0.196754
     7  H    0.269514
     8  Cl  -0.679783
     9  Cl  -0.678566
    10  O   -0.809523
    11  H    0.321137
    12  H    0.389447
    13  H    0.253753
    14  H    0.211725
 Sum of APT charges =   0.00000
 APT charges with hydrogens summed into heavy atoms:
               1
     1  Pt   1.188634
     2  N    0.297694
     5  N   -0.029039
     8  Cl  -0.679783
     9  Cl  -0.678566
    10  O   -0.098940
 Electronic spatial extent (au):  <R**2>=           1326.0936
 Charge=              0.0000 electrons
 Dipole moment (field-independent basis, Debye):
    X=             12.0515    Y=            -10.5702    Z=              1.3637  Tot=             16.0881
 Quadrupole moment (field-independent basis, Debye-Ang):
   XX=            -65.9718   YY=            -65.1986   ZZ=            -63.9149
   XY=              0.2509   XZ=              2.1682   YZ=             -3.6479
 Traceless Quadrupole moment (field-independent basis, Debye-Ang):
   XX=             -0.9434   YY=             -0.1701   ZZ=              1.1135
   XY=              0.2509   XZ=              2.1682   YZ=             -3.6479
 Octapole moment (field-independent basis, Debye-Ang**2):
  XXX=             94.4179  YYY=            -93.3360  ZZZ=              3.8108  XYY=              8.5551
  XXY=            -14.2227  XXZ=              0.3120  XZZ=             18.4231  YZZ=             -9.0674
  YYZ=              0.1526  XYZ=             -6.6627
 Hexadecapole moment (field-independent basis, Debye-Ang**3):
 XXXX=           -733.7897 YYYY=           -626.2237 ZZZZ=           -212.4190 XXXY=             -8.3443
 XXXZ=             -7.9298 YYYX=             -7.2639 YYYZ=             -5.8022 ZZZX=              5.1288
 ZZZY=            -13.3471 XXYY=           -228.4443 XXZZ=           -157.4627 YYZZ=           -138.3419
 XXYZ=            -10.3640 YYXZ=              3.1384 ZZXY=             11.4742
 N-N= 5.485581724204D+02 E-N=-3.983371084564D+03  KE= 1.149030498729D+03
  Exact polarizability: 135.352  -0.288 127.366   2.966  -1.390 108.288
 Approx polarizability: 148.137  -1.681 142.776   2.125  -1.024 117.757
 No NMR shielding tensors so no spin-rotation constants.
 Leave Link  601 at Mon Dec 28 11:34:58 2020, MaxMem=  4026531840 cpu:         3.3
 (Enter /home/scicons/Gaussian09.D01/l701.exe)
 Compute integral second derivatives.
 ... and contract with generalized density number  0.
 R6Disp: Adding Grimme-D3(BJ) dispersion energy 2nd derivatives to the Hessian.
   1 Symmetry operations used in ECPInt.
 ECPInt:  NShTT=    5565 NPrTT=   17197 LenC2=    5375 LenP2D=   12842.
 LDataN:  DoStor=T MaxTD1=10 Len=  848
 D2PCM: PCM CHGder 2nd derivatives, FixD1E=F FixD2E=F DoIter=F DoCFld=F I1PDM=0
 GePol: Maximum number of non-zero 2nd derivatives   =     352
 Leave Link  701 at Mon Dec 28 11:35:04 2020, MaxMem=  4026531840 cpu:       140.6
 (Enter /home/scicons/Gaussian09.D01/l702.exe)
 L702 exits ... SP integral derivatives will be done elsewhere.
 Leave Link  702 at Mon Dec 28 11:35:04 2020, MaxMem=  4026531840 cpu:         0.4
 (Enter /home/scicons/Gaussian09.D01/l703.exe)
 Compute integral second derivatives, UseDBF=F ICtDFT=           0.
 Integral derivatives from FoFJK, PRISM(SPDF).
 Calling FoFJK, ICntrl=    100127 FMM=F ISym2X=0 I1Cent= 0 IOpClX= 0 NMat=1 NMatS=1 NMatT=0.
 FoFJK:  IHMeth= 1 ICntrl=  100127 DoSepK=F KAlg= 0 I1Cent=   0 FoldK=F
 IRaf=         0 NMat=   1 IRICut=       1 DoRegI=T DoRafI=F ISym2E= 0.
 FoFCou: FMM=F IPFlag=           0 FMFlag=      100000 FMFlg1=         800
         NFxFlg=           0 DoJE=F BraDBF=F KetDBF=F FulRan=T
         wScrn=  0.000000 ICntrl=  100127 IOpCl=  0 I1Cent=           0 NGrid=           0
         NMat0=    1 NMatS0=      1 NMatT0=    0 NMatD0=    1 NMtDS0=    0 NMtDT0=    0
 Symmetry not used in FoFCou.
 Defaulting to unpruned grid for atomic number  78.
 Defaulting to unpruned grid for atomic number  78.
 Defaulting to unpruned grid for atomic number  78.
 Defaulting to unpruned grid for atomic number  78.
 Defaulting to unpruned grid for atomic number  78.
 Defaulting to unpruned grid for atomic number  78.
 Defaulting to unpruned grid for atomic number  78.
 Defaulting to unpruned grid for atomic number  78.
 Defaulting to unpruned grid for atomic number  78.
 Defaulting to unpruned grid for atomic number  78.
 Defaulting to unpruned grid for atomic number  78.
 Defaulting to unpruned grid for atomic number  78.
 Defaulting to unpruned grid for atomic number  78.
 Defaulting to unpruned grid for atomic number  78.
 Defaulting to unpruned grid for atomic number  78.
 Defaulting to unpruned grid for atomic number  78.
 Defaulting to unpruned grid for atomic number  78.
 Defaulting to unpruned grid for atomic number  78.
 Defaulting to unpruned grid for atomic number  78.
 Defaulting to unpruned grid for atomic number  78.
 Defaulting to unpruned grid for atomic number  78.
 Defaulting to unpruned grid for atomic number  78.
 Defaulting to unpruned grid for atomic number  78.
 Defaulting to unpruned grid for atomic number  78.
 Leave Link  703 at Mon Dec 28 11:35:27 2020, MaxMem=  4026531840 cpu:       567.5
 (Enter /home/scicons/Gaussian09.D01/l716.exe)
 Dipole        = 4.74142129D+00-4.15862044D+00 5.36517601D-01
 Polarizability= 1.35351862D+02-2.87723454D-01 1.27366032D+02
                 2.96561752D+00-1.39031564D+00 1.08288369D+02
 ***** Axes restored to original set *****
 -------------------------------------------------------------------
 Center     Atomic                   Forces (Hartrees/Bohr)
 Number     Number              X              Y              Z
 -------------------------------------------------------------------
      1       78          -0.041251534   -0.020844349   -0.015702794
      2        7           0.000772114    0.000455409    0.004125239
      3        1           0.005516331   -0.010666701    0.008727639
      4        1           0.006506149    0.010484890    0.009923616
      5        7          -0.001042689    0.002309615    0.002225218
      6        1           0.005483263    0.008796559   -0.007658603
      7        1          -0.009224483    0.004471018   -0.004640818
      8       17          -0.006854095   -0.020233036    0.004786987
      9       17           0.002432931    0.002887593   -0.022236652
     10        8           0.039463050    0.004959498    0.011948117
     11        1           0.006750031    0.004847569   -0.004726091
     12        1           0.004982799    0.004752400   -0.006395902
     13        1          -0.012097968   -0.000680526    0.008827864
     14        1          -0.001435898    0.008460060    0.010796182
 -------------------------------------------------------------------
 Cartesian Forces:  Max     0.041251534 RMS     0.012424185
 FormGI is forming the generalized inverse of G from B-inverse, IUseBI=4.
 Leave Link  716 at Mon Dec 28 11:35:27 2020, MaxMem=  4026531840 cpu:         0.5
 (Enter /home/scicons/Gaussian09.D01/l103.exe)

 GradGradGradGradGradGradGradGradGradGradGradGradGradGradGradGradGradGrad
 Berny optimization.
 Red2BG is reusing G-inverse.
 Internal  Forces:  Max     0.052834119 RMS     0.010233763
 Search for a saddle point.
 Step number   1 out of a maximum of   78
 All quantities printed in internal units (Hartrees-Bohrs-Radians)
 Swapping is turned off.
 Second derivative matrix not updated -- analytic derivatives used.
 ITU=  0
     Eigenvalues ---   -0.04294  -0.00127  -0.00065   0.00003   0.00227
     Eigenvalues ---    0.01421   0.01928   0.02461   0.02713   0.03213
     Eigenvalues ---    0.03935   0.04472   0.05482   0.05788   0.06766
     Eigenvalues ---    0.07018   0.07612   0.07920   0.08451   0.08906
     Eigenvalues ---    0.09364   0.09946   0.10739   0.11404   0.14355
     Eigenvalues ---    0.14786   0.15683   0.23903   0.48733   0.48880
     Eigenvalues ---    0.48959   0.49084   0.49229   0.49332   0.52998
     Eigenvalues ---    0.53948
 Eigenvectors required to have negative eigenvalues:
                          R2        A8        A4        R5        D5
   1                   -0.46830  -0.39868   0.38448   0.37001  -0.26469
                          D4        D6        D9        D7        D8
   1                   -0.26264  -0.25658   0.14210   0.13604   0.13399
 Eigenvalue     2 is  -1.27D-03 should be greater than     0.000000 Eigenvector:
                          D29       D28       D23       D22       D25
   1                    0.36153   0.36110   0.35849   0.35805   0.34212
                          D24       D27       D26       D18       D12
   1                    0.34169   0.29598   0.29554   0.09777   0.08852
 Eigenvalue     3 is  -6.47D-04 should be greater than     0.000000 Eigenvector:
                          D21       D19       D15       D20       D12
   1                    0.30935   0.29748   0.28645   0.28113   0.27513
                          D13       D18       D10       D16       D14
   1                    0.27458   0.27416   0.26327   0.26230   0.25823
 RFO step:  Lambda0=6.060236652D-03 Lambda=-3.17411736D-02.
 Linear search not attempted -- option 19 set.
 Maximum step size (   0.300) exceeded in Quadratic search.
    -- Step size scaled by   0.592
 Iteration  1 RMS(Cart)=  0.08146399 RMS(Int)=  0.00340794
 Iteration  2 RMS(Cart)=  0.00359422 RMS(Int)=  0.00044206
 Iteration  3 RMS(Cart)=  0.00000689 RMS(Int)=  0.00044200
 Iteration  4 RMS(Cart)=  0.00000000 RMS(Int)=  0.00044200
 ITry= 1 IFail=0 DXMaxC= 2.52D-01 DCOld= 1.00D+10 DXMaxT= 3.00D-01 DXLimC= 3.00D+00 Rises=F
 Variable       Old X    -DE/DX   Delta X   Delta X   Delta X     New X
                                 (Linear)    (Quad)   (Total)
    R1        3.76056   0.03163   0.00000   0.05762   0.05762   3.81817
    R2        4.23306   0.02463   0.00000   0.19989   0.19989   4.43295
    R3        4.30858   0.02095   0.00000   0.04589   0.04589   4.35447
    R4        4.30858   0.02223   0.00000   0.05371   0.05371   4.36229
    R5        4.15749   0.05283   0.00000   0.09538   0.09538   4.25287
    R6        1.88973   0.01421   0.00000   0.01647   0.01647   1.90620
    R7        1.88973   0.01495   0.00000   0.01719   0.01719   1.90692
    R8        1.88973   0.01435   0.00000   0.01710   0.01710   1.90683
    R9        1.88973   0.01227   0.00000   0.01339   0.01339   1.90312
   R10        1.88973   0.01075   0.00000   0.01259   0.01259   1.90231
   R11        1.88973   0.01304   0.00000   0.01451   0.01451   1.90423
   R12        1.81414   0.00527   0.00000   0.00795   0.00795   1.82209
   R13        1.81414   0.00578   0.00000   0.00734   0.00734   1.82148
    A1        1.57080   0.00166   0.00000  -0.01227  -0.01305   1.55775
    A2        1.57080  -0.00207   0.00000  -0.00481  -0.00604   1.56475
    A3        1.57080   0.00005   0.00000   0.01157   0.01144   1.58224
    A4        2.48861   0.00077   0.00000  -0.10362  -0.10371   2.38490
    A5        1.57080  -0.00284   0.00000   0.00492   0.00586   1.57665
    A6        1.30343   0.00740   0.00000   0.00294   0.00302   1.30645
    A7        1.57080   0.00424   0.00000   0.02271   0.02484   1.59563
    A8        2.49115  -0.00817   0.00000   0.10069   0.10065   2.59180
    A9        1.57080  -0.00231   0.00000  -0.03267  -0.03239   1.53840
   A10        1.91063   0.00363   0.00000   0.01678   0.01667   1.92730
   A11        1.91063   0.00555   0.00000   0.00878   0.00870   1.91933
   A12        1.91063   0.00384   0.00000   0.01406   0.01398   1.92461
   A13        1.91063  -0.00445   0.00000  -0.01082  -0.01091   1.89972
   A14        1.91063  -0.00433   0.00000  -0.01594  -0.01605   1.89458
   A15        1.91063  -0.00425   0.00000  -0.01286  -0.01292   1.89772
   A16        2.01932   0.00215   0.00000  -0.02224  -0.02214   1.99718
   A17        1.79394   0.00292   0.00000   0.01633   0.01620   1.81014
   A18        1.91406   0.00507   0.00000   0.02240   0.02233   1.93639
   A19        1.91063  -0.00351   0.00000  -0.00807  -0.00799   1.90264
   A20        1.91063  -0.00348   0.00000  -0.00179  -0.00167   1.90897
   A21        1.91063  -0.00317   0.00000  -0.00571  -0.00607   1.90456
   A22        2.04371   0.00775   0.00000   0.04174   0.04182   2.08553
   A23        1.84370   0.00457   0.00000  -0.01268  -0.01258   1.83112
   A24        1.91063  -0.00767   0.00000  -0.02195  -0.02179   1.88885
   A25        3.14159  -0.00118   0.00000  -0.00735  -0.00719   3.13440
   A26        3.14159  -0.00202   0.00000  -0.01986  -0.01976   3.12183
    D1       -2.74738  -0.00257   0.00000  -0.05699  -0.05690  -2.80428
    D2       -0.65298  -0.00239   0.00000  -0.05460  -0.05450  -0.70748
    D3        1.44141  -0.00184   0.00000  -0.05636  -0.05629   1.38512
    D4        1.04720  -0.00333   0.00000   0.04663   0.04658   1.09378
    D5       -3.14159  -0.00315   0.00000   0.04903   0.04898  -3.09261
    D6       -1.04720  -0.00260   0.00000   0.04726   0.04719  -1.00001
    D7       -1.44395   0.00484   0.00000  -0.05405  -0.05407  -1.49803
    D8        0.65044   0.00501   0.00000  -0.05166  -0.05168   0.59877
    D9        2.74484   0.00556   0.00000  -0.05342  -0.05347   2.69137
   D10        2.17401   0.00074   0.00000   0.11730   0.11700   2.29100
   D11       -2.02798  -0.00045   0.00000   0.10669   0.10630  -1.92168
   D12        0.00297  -0.00041   0.00000   0.11814   0.11794   0.12092
   D13       -2.53838  -0.00050   0.00000   0.09335   0.09437  -2.44401
   D14       -0.45718  -0.00169   0.00000   0.08274   0.08367  -0.37351
   D15        1.57377  -0.00165   0.00000   0.09419   0.09531   1.66908
   D16       -0.96759   0.00276   0.00000   0.13717   0.13676  -0.83083
   D17        1.11361   0.00157   0.00000   0.12655   0.12606   1.23967
   D18       -3.13862   0.00161   0.00000   0.13800   0.13770  -3.00092
   D19        0.60321   0.00114   0.00000   0.10195   0.10161   0.70482
   D20        2.68441  -0.00005   0.00000   0.09134   0.09092   2.77533
   D21       -1.56782  -0.00001   0.00000   0.10278   0.10256  -1.46527
   D22       -1.55426  -0.00156   0.00000   0.12820   0.12829  -1.42597
   D23        2.59715  -0.00022   0.00000   0.13939   0.13955   2.73670
   D24        0.01654   0.00014   0.00000   0.11231   0.11167   0.12821
   D25       -2.11524   0.00148   0.00000   0.12351   0.12293  -1.99231
   D26       -3.12505   0.00179   0.00000   0.12093   0.12119  -3.00386
   D27        1.02635   0.00313   0.00000   0.13213   0.13245   1.15880
   D28        1.58733  -0.00217   0.00000   0.12635   0.12652   1.71385
   D29       -0.54445  -0.00083   0.00000   0.13755   0.13778  -0.40667
         Item               Value     Threshold  Converged?
 Maximum Force            0.052834     0.000450     NO 
 RMS     Force            0.010234     0.000300     NO 
 Maximum Displacement     0.252351     0.001800     NO 
 RMS     Displacement     0.081380     0.001200     NO 
 Predicted change in Energy=-1.189926D-02
 Lowest energy point so far.  Saving SCF results.
 GradGradGradGradGradGradGradGradGradGradGradGradGradGradGradGradGradGrad

 Leave Link  103 at Mon Dec 28 11:35:28 2020, MaxMem=  4026531840 cpu:         0.8
 (Enter /home/scicons/Gaussian09.D01/l202.exe)
                          Input orientation:                          
 ---------------------------------------------------------------------
 Center     Atomic      Atomic             Coordinates (Angstroms)
 Number     Number       Type             X           Y           Z
 ---------------------------------------------------------------------
      1         78           0        0.462442   -0.016560   -0.019866
      2          7           0        0.431553    0.009299    2.000222
      3          1           0        0.871771   -0.819688    2.369682
      4          1           0        0.925082    0.820372    2.342085
      5          7           0        0.103115    2.301570   -0.024416
      6          1           0        0.728377    2.818803   -0.620855
      7          1           0       -0.836430    2.396743   -0.373076
      8         17           0       -0.844114   -1.914535   -0.001617
      9         17           0        0.540254   -0.022712   -2.326970
     10          8           0        2.519078    0.897261   -0.025866
     11          1           0        2.615083    1.850918    0.079104
     12          1           0        2.898912    0.647831   -0.875918
     13          1           0       -0.519743    0.043933    2.334914
     14          1           0        0.147683    2.674863    0.910506
 ---------------------------------------------------------------------
                    Distance matrix (angstroms):
                    1          2          3          4          5
     1  Pt   0.000000
     2  N    2.020489   0.000000
     3  H    2.553919   1.008718   0.000000
     4  H    2.548196   1.009099   1.641158   0.000000
     5  N    2.345819   3.075961   4.008090   2.910310   0.000000
     6  H    2.910532   3.853760   4.711952   3.579306   1.007086
     7  H    2.763306   3.597251   4.559177   3.599995   1.006661
     8  Cl   2.304285   3.055458   3.125061   4.012818   4.321262
     9  Cl   2.308424   4.328675   4.775313   4.760142   3.300777
    10  O    2.250524   3.041590   3.376416   2.855508   2.794452
    11  H    2.851514   3.442391   3.926579   3.006528   2.554171
    12  H    2.666576   3.842884   4.098393   3.779063   3.358033
    13  H    2.552124   1.009050   1.638096   1.640253   3.324352
    14  H    2.865035   2.893665   3.855565   2.468381   1.007677
                    6          7          8          9         10
     6  H    0.000000
     7  H    1.639558   0.000000
     8  Cl   5.026000   4.327258   0.000000
     9  Cl   3.319702   3.400988   3.301929   0.000000
    10  O    2.693129   3.691670   4.383816   3.171304   0.000000
    11  H    2.233026   3.523540   5.113824   3.688440   0.964207
    12  H    3.080486   4.155036   4.619563   2.849289   0.963886
    13  H    4.241967   3.601280   3.065973   4.781339   3.941559
    14  H    1.644078   1.641162   4.783117   4.232290   3.108082
                   11         12         13         14
    11  H    0.000000
    12  H    1.562063   0.000000
    13  H    4.263920   4.728777   0.000000
    14  H    2.730967   3.856090   3.065321   0.000000
 Stoichiometry    Cl2H8N2OPt
 Framework group  C1[X(Cl2H8N2OPt)]
 Deg. of freedom    36
 Full point group                 C1      NOp   1
 RotChk:  IX=0 Diff= 1.25D-01
 Largest Abelian subgroup         C1      NOp   1
 Largest concise Abelian subgroup C1      NOp   1
                         Standard orientation:                         
 ---------------------------------------------------------------------
 Center     Atomic      Atomic             Coordinates (Angstroms)
 Number     Number       Type             X           Y           Z
 ---------------------------------------------------------------------
      1         78           0       -0.011936   -0.127788   -0.039186
      2          7           0       -0.246231   -2.132906   -0.122762
      3          1           0       -0.757710   -2.393310   -0.952274
      4          1           0        0.655832   -2.584835   -0.140721
      5          7           0        1.753758   -0.428099    1.475741
      6          1           0        2.588736    0.087609    1.249732
      7          1           0        1.382181   -0.085405    2.346291
      8         17           0       -2.299606    0.120440    0.081953
      9         17           0        0.297684    2.158662    0.032257
     10          8           0        1.838552   -0.264993   -1.312657
     11          1           0        2.680246   -0.496973   -0.903474
     12          1           0        1.928651    0.606677   -1.714092
     13          1           0       -0.756146   -2.459263    0.684493
     14          1           0        1.980755   -1.404807    1.575383
 ---------------------------------------------------------------------
 Rotational constants (GHZ):      1.5377488      1.3146945      0.8928325
 Leave Link  202 at Mon Dec 28 11:35:28 2020, MaxMem=  4026531840 cpu:         0.2
 (Enter /home/scicons/Gaussian09.D01/l301.exe)
 Standard basis: def2TZVP (5D, 7F)
 Ernie: Thresh=  0.10000D-02 Tol=  0.10000D-05 Strict=F.
 There are   286 symmetry adapted cartesian basis functions of A   symmetry.
 There are   255 symmetry adapted basis functions of A   symmetry.
   255 basis functions,   430 primitive gaussians,   286 cartesian basis functions
    41 alpha electrons       41 beta electrons
       nuclear repulsion energy       538.4371273100 Hartrees.
 IExCor=  402 DFT=T Ex+Corr=B3LYP ExCW=0 ScaHFX=  0.200000
 ScaDFX=  0.800000  0.720000  1.000000  0.810000 ScalE2=  1.000000  1.000000
 IRadAn=      0 IRanWt=     -1 IRanGd=            0 ICorTp=0 IEmpDi=141
 NAtoms=   14 NActive=   14 NUniq=   14 SFac= 1.00D+00 NAtFMM=   60 NAOKFM=F Big=F
 Integral buffers will be    131072 words long.
 Raffenetti 2 integral format.
 Two-electron integral symmetry is turned on.
 R6Disp:  Grimme-D3(BJ) Dispersion energy=       -0.0284229280 Hartrees.
 Nuclear repulsion after empirical dispersion term =      538.4087043821 Hartrees.
 Force inversion solution in PCM.
 ------------------------------------------------------------------------------
 Polarizable Continuum Model (PCM)
 =================================
 Model                : PCM (using non-symmetric T matrix).
 Atomic radii         : SMD-Coulomb.
 Polarization charges : Total charges.
 Charge compensation  : None.
 Solution method      : Matrix inversion.
 Cavity type          : VdW (van der Waals Surface) (Alpha=1.000).
 Cavity algorithm     : GePol (No added spheres)
                        Default sphere list used, NSphG=   14.
                        Lebedev-Laikov grids with approx.  5.0 points / Ang**2.
                        Smoothing algorithm: Karplus/York (Gamma=1.0000).
                        Polarization charges: spherical gaussians, with
                                              point-specific exponents (IZeta= 3).
                        Self-potential: point-specific (ISelfS= 7).
                        Self-field    : sphere-specific E.n sum rule (ISelfD= 2).
 1st derivatives      : Analytical E(r).r(x)/FMM algorithm (CHGder, D1EAlg=3).
                        Cavity 1st derivative terms included.
 2nd derivatives      : Analytical E(r).r(xy)/FMM algorithm (CHGder, D2EAlg=3).
                        Cavity 2nd derivative terms included.
 Solvent              : Water, Eps=  78.355300 Eps(inf)=   1.777849
 ------------------------------------------------------------------------------
 Spheres list:
 ISph  on   Nord     Re0    Alpha      Xe            Ye            Ze
    1  Pt      1    1.7500  1.000     -0.011936     -0.127788     -0.039186
    2   N      2    1.8900  1.000     -0.246231     -2.132906     -0.122762
    3   H      3    1.2000  1.000     -0.757710     -2.393310     -0.952274
    4   H      4    1.2000  1.000      0.655832     -2.584835     -0.140721
    5   N      5    1.8900  1.000      1.753758     -0.428099      1.475741
    6   H      6    1.2000  1.000      2.588736      0.087609      1.249732
    7   H      7    1.2000  1.000      1.382181     -0.085405      2.346291
    8  Cl      8    2.3800  1.000     -2.299606      0.120440      0.081953
    9  Cl      9    2.3800  1.000      0.297684      2.158662      0.032257
   10   O     10    1.5200  1.000      1.838552     -0.264993     -1.312657
   11   H     11    1.2000  1.000      2.680246     -0.496973     -0.903474
   12   H     12    1.2000  1.000      1.928651      0.606677     -1.714092
   13   H     13    1.2000  1.000     -0.756146     -2.459263      0.684493
   14   H     14    1.2000  1.000      1.980755     -1.404807      1.575383
 ------------------------------------------------------------------------------
 GePol: Number of generator spheres                  =      14
 GePol: Total number of spheres                      =      14
 GePol: Number of exposed spheres                    =      14 (100.00%)
[...]
 Vib (V=0)   12  0.142238D+01          0.153015          0.352329
 Vib (V=0)   13  0.128849D+01          0.110082          0.253473
 Vib (V=0)   14  0.127075D+01          0.104061          0.239609
 Vib (V=0)   15  0.122485D+01          0.088084          0.202820
 Vib (V=0)   16  0.110156D+01          0.042010          0.096730
 Vib (V=0)   17  0.109093D+01          0.037797          0.087031
 Vib (V=0)   18  0.107278D+01          0.030512          0.070255
 Electronic      0.100000D+01          0.000000          0.000000
 Translational   0.221807D+09          8.345975         19.217317
 Rotational      0.723321D+06          5.859331         13.491608
 
                                                         Title Card Required
                                                             IR Spectrum
 
     3  3   3333 33                                                        11111         1       1                                   
     8  7   5555 44                                                        66665         2       0        77      554333222111111    
     0  2   8632 53                                                        22119         9       5        97      519521530975433985 
     6  3   3745 54                                                        30415         3       9        44      854100233372383684 
 
     X  X   XXXX XX                                                        XXXXX         X       X        XX      XXXXXXXXXXXXXXXXXX 
     X  X   XXXX  X                                                        XXXXX         X       X        XX      XX XXXX X  XX  XXX 
     X  X     XX                                                            X XX         X       X        X       X  X XX X       X  
     X  X     XX                                                              XX         X       X                X  X XX X       X  
     X  X     XX                                                              XX         X       X                X  X  X            
     X                                                                         X         X       X                X     X            
     X                                                                         X         X       X                X     X            
     X                                                                         X         X       X                X     X            
     X                                                                                           X                X     X            
     X                                                                                           X                X     X            
     X                                                                                           X                X     X            
                                                                                                                  X                  
                                                                                                                  X                  
                                                                                                                  X                  
                                                                                                                  X                  
                                                                                                                  X                  
                                                                                                                  X                  
                                                                                                                  X                  
                                                                                                                  X                  
                                                                                                                  X                  
 
 ***** Axes restored to original set *****
 -------------------------------------------------------------------
 Center     Atomic                   Forces (Hartrees/Bohr)
 Number     Number              X              Y              Z
 -------------------------------------------------------------------
      1       78          -0.000002254    0.000002041    0.000000457
      2        7           0.000030796   -0.000011783   -0.000002773
      3        1           0.000033888   -0.000008906   -0.000012600
      4        1           0.000028626   -0.000017431    0.000010240
      5        7          -0.000018280    0.000001952    0.000015394
      6        1          -0.000030233    0.000007050    0.000016824
      7        1          -0.000013007   -0.000007537    0.000031664
      8       17           0.000010112   -0.000007297    0.000008800
      9       17          -0.000031435    0.000014695   -0.000004524
     10        8          -0.000004915    0.000013864   -0.000029016
     11        1          -0.000010283    0.000011395   -0.000017555
     12        1          -0.000019420    0.000021631   -0.000032740
     13        1           0.000037701   -0.000017935    0.000002130
     14        1          -0.000011296   -0.000001736    0.000013699
 -------------------------------------------------------------------
 Cartesian Forces:  Max     0.000037701 RMS     0.000018134
 Red2BG is reusing G-inverse.
 Leave Link  716 at Mon Dec 28 12:56:57 2020, MaxMem=  4026531840 cpu:         0.6
 (Enter /home/scicons/Gaussian09.D01/l9999.exe)
 1\1\GINC-CU09\Freq\RB3LYP\def2TZVP\Cl2H8N2O1Pt1\LIJUN\28-Dec-2020\0\\#
 p opt=(calcall,ts,noeigen) b3lyp scrf=(smd,solvent=water) geom=connect
 ivity def2tzvp em=gd3bj\\Title Card Required\\0,1\Pt,0.4397503624,-0.1
 45742222,-0.0365515998\N,0.3205764128,-0.1057965407,2.0183581911\H,1.2
 429461825,-0.1769455099,2.4428804044\H,-0.1033887052,0.7618971208,2.33
 85582804\N,0.2562326242,2.4966258958,-0.0056478818\H,0.4219978133,2.81
 15403501,-0.9558305271\H,-0.7377805494,2.5770791064,0.1767681569\Cl,-1
 .0542317519,-1.9049037678,-0.0135910419\Cl,0.6555505675,-0.120366871,-
 2.3680326772\O,2.6836313806,0.8097113774,0.013758717\H,2.5031234058,1.
 757808045,0.0808948167\H,2.9253901921,0.6721477896,-0.914623167\H,-0.2
 458885835,-0.8772795836,2.3648830885\H,0.7351538989,3.1323242901,0.626
 1031998\\Version=ES64L-G09RevD.01\State=1-A\HF=-1229.6536551\RMSD=7.89
 6e-09\RMSF=1.813e-05\ZeroPoint=0.1025604\Thermal=0.1150844\Dipole=1.35
 94976,4.0922814,3.8251787\DipoleDeriv=0.9815545,0.3810238,-0.0963914,0
 .4678279,1.2888987,0.1109487,-0.1376587,0.0983608,1.68474,-0.1865404,-
 0.0054191,-0.0615173,0.0032245,-0.193688,-0.1360984,0.0612316,-0.01545
 53,-0.9809049,0.2699869,-0.0026281,0.0651448,0.0076137,0.2752407,-0.01
 52161,-0.0089389,-0.0065494,0.1563603,0.2705574,0.0099375,-0.0243144,-
 0.0023935,0.2616264,0.027369,0.0081625,-0.015436,0.168395,-0.5877526,-
 0.0419848,0.0093744,0.2030313,-1.1748767,0.0054524,0.0236355,-0.079352
 5,-0.4262649,0.2352006,-0.021595,-0.0134507,-0.0438992,0.2291643,0.056
 1495,-0.0047287,0.0520224,0.1670543,0.1625561,-0.0014181,0.0072025,0.0
 848801,0.2960064,-0.0258609,-0.0087782,-0.0164008,0.2341058,-0.6993349
 ,-0.3223119,-0.0140845,-0.2603678,-0.9011874,-0.0206005,0.0158752,0.01
 92671,-0.3604288,-0.4598867,-0.0192299,0.1200972,-0.021608,-0.3899318,
 0.0564925,0.0519022,-0.0094343,-1.3205145,-1.451288,-0.0022528,-0.0104
 889,-0.368818,-0.6571731,-0.0824473,-0.0626923,-0.0947358,-0.4980569,0
 .4517522,-0.0099377,0.0160028,0.0010237,0.3191383,0.0298052,0.0322381,
 0.0616661,0.3638004,0.5237446,0.0263306,-0.0337271,-0.0012375,0.360231
 3,0.040311,0.0396906,0.0406658,0.3334733,0.2434208,0.0026393,0.0351902
 ,0.0037052,0.2432301,0.0386115,-0.0128396,-0.0221529,0.2561461,0.24602
 94,0.006846,0.0009623,-0.0729823,0.0433207,-0.0849167,0.0029006,-0.012
 4651,0.2220949\Polar=119.4269799,12.3880283,132.9710744,-4.6025073,0.0
 382147,135.9644155\PG=C01 [X(Cl2H8N2O1Pt1)]\NImag=1\\0.09097907,0.0864
 6448,0.12312681,-0.01561761,-0.00505184,0.25430809,-0.04272690,-0.0036
 1475,0.00780850,0.66864655,-0.00346128,-0.04174649,0.00313233,0.006303
 68,0.67134944,0.00086253,-0.00248338,-0.10105945,0.01964954,-0.0039752
 3,0.36905018,0.00527671,-0.00026335,-0.00298798,-0.34767045,0.02181730
 ,-0.12822464,0.37329152,-0.00106590,-0.00083785,0.00112439,0.02123880,
 -0.05943079,0.01033571,-0.02437548,0.05657491,-0.01547663,0.00046331,-
 0.00829019,-0.15703558,0.01384542,-0.10131167,0.14471918,-0.01157169,0
 .10350647,-0.00003497,-0.00117715,0.00258366,-0.12014496,0.12714403,0.
 04314570,-0.01267980,0.03096598,0.01200886,0.12191000,-0.00145822,0.00
 349805,-0.00256296,0.12630530,-0.31657835,-0.08993323,-0.00059173,-0.0
 0070480,-0.00036924,-0.13829177,0.33687627,0.00730137,-0.01533657,-0.0
 0729681,0.05562271,-0.11479099,-0.07173044,-0.00608946,0.01468710,0.00
 358560,-0.04845871,0.10143485,0.07419262,-0.00171256,0.00047067,-0.000
 08850,0.00009945,-0.00017424,0.00002956,-0.00000266,-0.00004350,0.0000
 6997,0.00019452,-0.00010651,-0.00026313,0.60654912,-0.01770324,0.00496
 819,0.00185922,-0.00027733,-0.00077121,0.00035777,-0.00006471,0.000018
 82,0.00001785,0.00026601,-0.00014617,0.00008762,0.12062163,0.26514784,
 -0.00167604,0.00490402,-0.00809454,0.00056371,0.00169306,-0.00031161,-
 0.00005946,0.00002546,0.00001686,-0.00045759,0.00033246,0.00120928,-0.
 01838017,0.04782438,0.64232106,0.00059523,-0.00009468,-0.00125923,0.00
 008984,0.00014522,-0.00001798,-0.00000177,-0.00002009,0.00002357,-0.00
 009225,0.00000606,0.00012989,-0.06009978,-0.02692625,0.04398381,0.0632
 2569,-0.00108455,-0.00131572,0.00401921,-0.00024266,-0.00031417,-0.000
 08162,0.00002940,-0.00001047,-0.00004672,0.00014241,0.00000173,-0.0004
 7541,-0.03978815,-0.06235820,0.13611217,0.03075156,0.06111306,-0.00041
 785,0.00063519,0.00049982,0.00002828,-0.00007754,0.00000410,-0.0000007
 0,0.00000343,-0.00000774,0.00001346,-0.00001668,-0.00002607,0.05938685
 ,0.09585620,-0.37831817,-0.06197394,-0.11100184,0.40320879,-0.00018694
 ,-0.00007298,0.00013373,-0.00000626,0.00007784,0.00000751,-0.00005538,
 -0.00002714,0.00002043,-0.00015381,0.00024500,-0.00045841,-0.41332115,
 0.01183197,0.06926449,-0.00516237,0.00301567,-0.00190173,0.43557693,0.
 00136827,-0.00085372,-0.00084038,0.00001867,0.00018414,-0.00006574,-0.
 00000278,0.00005870,-0.00002273,0.00008212,0.00008341,0.00028792,0.055
 19655,-0.01976973,-0.01826622,-0.01226048,-0.00229914,0.00334644,-0.02
 036530,0.02478870,-0.00029363,0.00002719,-0.00002523,-0.00003032,-0.00
 002096,0.00002057,0.00001086,-0.00002215,0.00000167,-0.00016637,-0.000
 05375,0.00005526,0.06031256,-0.00977896,-0.06644473,0.03785318,-0.0035
 7886,-0.00556268,-0.07203057,0.01059241,0.06703050,-0.04049620,-0.0490
 6278,-0.00002924,-0.00024249,-0.00235242,-0.00135241,0.00000957,0.0001
 0767,0.00012025,-0.00004348,0.00006877,-0.00013696,-0.00160824,0.00132
 733,-0.00011546,0.00005727,-0.00028046,-0.00006005,-0.00005495,0.00014
 210,0.00001133,0.05078545,-0.05715292,-0.05456897,-0.00050785,-0.00261
 631,-0.00183596,-0.00223988,0.00015513,-0.00001563,-0.00010761,0.00000
 378,-0.00003575,0.00014012,-0.00266006,-0.00860884,-0.00139280,0.00028
 053,-0.00086250,-0.00026066,-0.00028790,0.00009445,0.00001982,0.057373
 27,0.06837431,0.00356783,0.00244637,-0.02273766,-0.00734189,-0.0084629
 7,-0.00077965,-0.00031444,-0.00066631,-0.00029353,-0.00036658,-0.00050
 691,-0.00020638,0.00025435,0.00013297,0.00143298,0.00012148,-0.0003682
 8,0.00002039,0.00001982,0.00003572,0.00002431,0.00063588,0.00179476,0.
 01765702,-0.02141301,-0.00237852,0.00341490,0.00931544,-0.00062656,0.0
 0305175,-0.00082105,0.00019702,0.00227923,0.00025562,0.00001264,-0.000
 71958,0.00045946,0.00035128,0.00014866,-0.00016033,0.00011394,0.000103
 84,0.00005478,-0.00017295,-0.00003893,-0.00009611,-0.00051829,0.003391
 72,0.01385549,-0.00174841,-0.02206346,-0.00237943,-0.00080426,0.009024
 88,0.00121344,-0.00005042,0.00024734,-0.00022427,0.00022089,-0.0003380
 4,0.00197129,-0.00018522,-0.00107914,-0.00250123,-0.00012578,0.0010981
 4,0.00048161,0.00012061,-0.00009591,-0.00006565,-0.00054687,-0.0001804
 4,0.00394317,0.00356796,0.01385910,0.00623297,0.00197513,-0.08591246,0
 .00155489,-0.00084229,-0.01617350,0.00183901,-0.00022602,-0.00175993,-
 0.00063358,0.00137153,-0.00221525,-0.00038747,-0.00195063,-0.00134246,
 0.00000294,0.00038387,0.00052466,-0.00007350,0.00006656,0.00001323,0.0
 0158987,0.00164322,-0.00016377,-0.00719561,0.00120619,0.11044232,0.014
 75119,-0.01936332,-0.00486143,0.00112881,0.00043014,0.00097081,-0.0003
 5986,0.00014438,0.00038168,0.00014955,-0.00001541,-0.00015305,-0.00982
 780,0.01524822,0.00247541,-0.00017790,0.00009027,0.00040872,0.00006476
 ,0.00293138,-0.00054501,-0.00726126,0.00401428,0.00040074,-0.00171514,
 -0.00126284,-0.00267554,0.06471546,0.00375755,-0.01488101,-0.00337369,
 0.00066866,0.00043798,0.00003161,-0.00010066,0.00013239,0.00020251,0.0
 0001142,-0.00008018,0.00007328,0.00601826,0.00236200,0.00006701,-0.000
 29245,0.00060053,0.00003464,-0.00002886,-0.00132274,0.00041654,-0.0070
 0611,-0.00011600,0.00047427,-0.00122000,-0.00007996,-0.00155084,-0.110
 31024,0.54062641,0.00147657,-0.00090599,-0.01216900,0.00190643,0.00102
 183,0.00068209,-0.00025741,-0.00017686,0.00049158,0.00007710,-0.000058
 55,0.00006316,0.00053354,-0.00062508,0.00136180,0.00026488,-0.00051297
 ,-0.00000067,0.00011128,0.00002474,0.00031143,0.00023509,0.00049163,0.
 00235654,-0.00479232,-0.00206166,-0.00238634,-0.12501233,0.08187475,0.
 50563431,-0.00036956,-0.00788013,-0.00040854,-0.00003860,-0.00007460,0
 .00002023,0.00001287,-0.00003836,0.00008419,-0.00002504,-0.00001209,0.
 00007879,0.00482790,0.00122131,-0.00104728,-0.00108696,0.00123051,-0.0
 0062192,0.00034033,-0.00201237,0.00077525,-0.00152233,-0.00015250,0.00
 006830,-0.00018652,0.00014001,0.00008668,-0.02573881,0.08611416,0.0186
 1503,0.02758170,-0.00510375,-0.00095956,0.00071706,-0.00021059,-0.0001
 1108,-0.00004464,0.00001282,-0.00005433,0.00002674,-0.00003408,-0.0000
 0849,0.00002181,0.00048667,-0.00286584,0.00105381,0.00040913,-0.000290
 75,0.00030031,0.00029594,0.00005021,-0.00041795,0.00013322,-0.00038412
 ,-0.00005432,0.00004735,0.00007479,0.00000503,0.09488257,-0.47758435,-
 0.04870083,-0.09364183,0.49250150,-0.00162456,-0.00010695,0.00049095,0
 .00007007,-0.00000254,-0.00013251,0.00003677,0.00006043,-0.00003698,0.
 00000553,0.00003258,-0.00002474,-0.00007483,0.00035562,-0.00072987,-0.
 00062655,0.00066919,-0.00054759,-0.00002173,-0.00020449,-0.00039079,0.
 00024773,0.00000121,-0.00000297,-0.00017066,0.00003402,0.00004412,0.01
 052447,0.00241727,-0.04229045,-0.01790182,0.04316116,0.04909367,-0.006
 92724,-0.00103818,0.00791483,-0.00030553,-0.00031252,-0.00051770,0.000
 04573,-0.00003694,-0.00020474,-0.00004768,0.00007474,-0.00010187,-0.00
 047510,-0.00022028,-0.00054313,-0.00014321,0.00030380,-0.00001811,-0.0
 0006702,-0.00002393,-0.00008889,0.00034140,-0.00009774,-0.00080181,0.0
 0021393,0.00034212,0.00020615,-0.03476844,0.02311761,0.10698566,-0.001
 70863,0.00133211,0.00905171,0.04370403,-0.00089053,-0.00002157,0.00288
 807,-0.00008561,-0.00017956,-0.00017091,0.00003159,0.00004117,-0.00016
 222,-0.00000729,0.00002282,-0.00004496,0.00009883,0.00030006,-0.000012
 33,0.00003087,0.00000009,0.00002201,0.00002866,0.00002295,0.00007299,-
 0.00027492,-0.00004690,-0.00026651,0.00045885,-0.00019980,-0.00032234,
 0.01175445,-0.05137192,-0.03076933,0.01218664,-0.00837240,-0.04559339,
 -0.02325852,0.05962431,0.00299456,0.00045870,0.00069615,0.00010651,-0.
 00001428,-0.00023534,-0.00003530,0.00001966,-0.00002541,0.00001764,0.0
 0002187,-0.00006329,-0.00048581,0.00093285,0.00012788,0.00005472,-0.00
 004038,0.00008865,-0.00007371,0.00012873,-0.00002952,-0.00064891,-0.00
 011694,0.00014326,0.00135559,0.00003303,0.00061577,0.11898234,-0.08025
 989,-0.45387359,-0.00022543,0.00458671,-0.00528641,-0.12198736,0.07432
 581,0.45799691,0.00017916,0.00072788,0.00227555,-0.16809866,-0.1487238
 2,0.06224995,-0.01707011,-0.02704862,0.01301923,0.01070243,0.01378163,
 -0.00666992,0.00005133,-0.00001739,-0.00027499,-0.00002044,0.00006812,
 -0.00000944,0.00003821,-0.00006167,0.00003050,0.00004092,0.00060391,0.
 00053935,0.00031757,0.00002837,-0.00072943,0.00013571,-0.00000114,0.00
 004449,-0.00003797,-0.00001069,0.00000751,-0.00001628,-0.00002718,-0.0
 0002589,0.17376045,0.00134461,0.00256462,0.00200663,-0.14681585,-0.260
 21866,0.08709758,0.00342666,0.00398673,-0.00209637,-0.01930141,-0.0224
 4126,0.01158937,-0.00010866,0.00003613,0.00012954,0.00002717,-0.000072
 75,-0.00002873,-0.00000381,0.00003549,-0.00001658,0.00066018,0.0003067
 1,0.00121288,0.00004373,0.00008407,-0.00127341,0.00000999,-0.00006430,
 -0.00014123,-0.00002472,-0.00001922,0.00001171,-0.00000635,0.00001512,
 -0.00002284,0.16075093,0.27578266,0.01135755,0.01501948,-0.01062123,0.
 07723315,0.10858572,-0.07819953,-0.00865066,-0.01359831,0.00412498,-0.
 00770667,-0.00945967,0.00243655,-0.00004281,-0.00008763,-0.00029899,-0
 .00000781,0.00002768,-0.00001163,0.00000544,-0.00002268,0.00000458,-0.
 00071740,-0.00033786,0.00261287,-0.00080392,-0.00139678,-0.00169713,-0
 .00019596,-0.00019210,-0.00021039,-0.00005527,-0.00000834,0.00000087,0
 .00002748,0.00001078,-0.00003387,-0.07048711,-0.09846398,0.08185820,0.
 00208603,-0.00271719,0.00112136,-0.00004624,-0.00019275,0.00012516,0.0
 0002468,0.00000219,-0.00000965,0.00000987,-0.00001841,-0.00008167,-0.1
 2513449,-0.10565854,-0.09388197,0.00297694,0.00565013,0.00506259,-0.01
 706714,-0.02483962,-0.02579996,0.00009046,0.00105481,-0.00017475,-0.00
 008012,0.00030385,0.00018262,-0.00109626,-0.00072821,-0.00018800,-0.00
 204838,0.00140115,0.00047636,0.00015404,-0.00004583,-0.00002896,0.0000
 1767,-0.00000248,0.00004399,0.14011295,-0.00326610,0.00309066,-0.00103
 075,0.00013225,0.00018983,-0.00004150,-0.00002376,-0.00000618,0.000045
 02,-0.00002494,-0.00014925,0.00035457,-0.13982627,-0.17723391,-0.16996
 932,0.00806919,0.00471016,0.01070561,0.00517029,-0.00097681,0.00282591
 ,-0.00028898,-0.00212035,0.00028515,0.00012354,-0.00035154,-0.00048601
 ,0.00144614,0.00134116,0.00053955,0.00294399,-0.00197635,-0.00083582,-
 0.00017591,0.00016563,-0.00005303,-0.00007033,0.00000468,-0.00007629,0
 .12579090,0.17331227,0.00131294,-0.00204466,0.00021156,-0.00013602,-0.
 00009156,0.00017677,0.00001424,0.00000518,-0.00000171,-0.00006244,-0.0
 0023230,0.00002051,-0.10086412,-0.13498220,-0.19092949,-0.01854895,-0.
 02510606,-0.01987185,0.00499696,0.00493973,0.00499140,0.00022028,0.000
 87283,-0.00006342,-0.00002467,-0.00025373,0.00001077,-0.00070086,-0.00
 021535,0.00002953,0.00053178,-0.00064655,-0.00018728,0.00007777,0.0000
 2234,-0.00012120,0.00003019,-0.00000456,0.00003471,0.11315289,0.157736
 90,0.20569970\\0.00000225,-0.00000204,-0.00000046,-0.00003080,0.000011
 78,0.00000277,-0.00003389,0.00000891,0.00001260,-0.00002863,0.00001743
 ,-0.00001024,0.00001828,-0.00000195,-0.00001539,0.00003023,-0.00000705
 ,-0.00001682,0.00001301,0.00000754,-0.00003166,-0.00001011,0.00000730,
 -0.00000880,0.00003144,-0.00001469,0.00000452,0.00000492,-0.00001386,0
 .00002902,0.00001028,-0.00001140,0.00001755,0.00001942,-0.00002163,0.0
 0003274,-0.00003770,0.00001794,-0.00000213,0.00001130,0.00000174,-0.00
 001370\\\@


 THESE ARE THE TIMES THAT TRY MENS SOULS.
 THE SUMMER SOLDIER AND THE SUNSHINE PATRIOT WILL IN THIS CRISIS,
 SHRINK FROM THE SERVICE OF HIS COUNTRY.  BUT HE THAT STANDS NOW,
 DESERVES THE LOVE AND THANKS OF MAN AND WOMAN.
 TYRANNY, LIKE HELL, IS NOT EASILY CONQUERED,
 YET WE HAVE THIS CONSOLATION WITH US,
 THAT THE HARDER THE CONFLICT, THE MORE GLORIOUS THE TRIUMPH.
 WHAT WE OBTAIN TOO CHEAP, WE ESTEEM TOO LIGHTLY, 
 'TIS DEARNESS ONLY THAT GIVES EVERYTHING ITS VALUE.

                                              -- TOM PAINE
 Job cpu time:       0 days 23 hours 14 minutes 50.5 seconds.
 File lengths (MBytes):  RWF=    167 Int=      0 D2E=      0 Chk=     13 Scr=      1
 Normal termination of Gaussian 09 at Mon Dec 28 12:56:58 2020.
