Title Card Required                                                     
Freq      RB3LYP                                                      def2TZVP            
Number of atoms                            I               14
Info1-9                                    I   N=           9
          38          38           0           0           1         100
           6          18        -502
Charge                                     I                0
Multiplicity                               I                1
Number of electrons                        I               82
Number of alpha electrons                  I               41
Number of beta electrons                   I               41
Number of basis functions                  I              255
Number of independent functions            I              255
Number of point charges in /Mol/           I                0
Number of translation vectors              I                0
Atomic numbers                             I   N=          14
          78           7           1           1          17           8
           1           1          17           7           1           1
           1           1
Nuclear charges                            R   N=          14
  1.80000000E+01  7.00000000E+00  1.00000000E+00  1.00000000E+00  1.70000000E+01
  8.00000000E+00  1.00000000E+00  1.00000000E+00  1.70000000E+01  7.00000000E+00
  1.00000000E+00  1.00000000E+00  1.00000000E+00  1.00000000E+00
Current cartesian coordinates              R   N=          42
  3.69735873E-01 -1.20223361E-01  2.09920641E-01  9.26074991E-01 -3.73693557E+00
 -1.10186703E+00  1.54919404E-01 -4.99033305E+00  1.33378839E-01  4.87843813E-02
 -3.93427202E+00 -2.80041556E+00  4.49508865E+00  8.60827317E-01 -6.86156517E-01
 -3.11365625E+00 -2.30817206E+00  2.25043667E+00 -4.29027146E+00 -1.37246650E+00
  1.10268324E+00 -3.47298498E+00 -1.76182298E+00  3.95035169E+00 -4.64049244E+00
  1.06708133E+00 -1.72150575E+00 -2.75959970E-01  3.55639505E+00  1.28451077E+00
 -1.98377300E+00  3.96373549E+00  4.60900039E-01 -3.73297693E-01  3.83279771E+00
  3.18009613E+00  2.80182406E+00 -4.09138907E+00 -1.32442990E+00  1.10571058E+00
  4.68588563E+00  5.71884394E-01
Force Field                                I                0
Int Atom Types                             I   N=          14
           0           0           0           0           0           0
           0           0           0           0           0           0
           0           0
MM charges                                 R   N=          14
  0.00000000E+00  0.00000000E+00  0.00000000E+00  0.00000000E+00  0.00000000E+00
  0.00000000E+00  0.00000000E+00  0.00000000E+00  0.00000000E+00  0.00000000E+00
  0.00000000E+00  0.00000000E+00  0.00000000E+00  0.00000000E+00
Integer atomic weights                     I   N=          14
         195          14           1           1          35          16
           1           1          35          14           1           1
           1           1
Real atomic weights                        R   N=          14
  1.94964800E+02  1.40030740E+01  1.00782504E+00  1.00782504E+00  3.49688527E+01
  1.59949146E+01  1.00782504E+00  1.00782504E+00  3.49688527E+01  1.40030740E+01
  1.00782504E+00  1.00782504E+00  1.00782504E+00  1.00782504E+00
Atom fragment info                         I   N=          14
           0           0           0           0           0           0
           0           0           0           0           0           0
           0           0
Atom residue num                           I   N=          14
           0           0           0           0           0           0
           0           0           0           0           0           0
           0           0
Nuclear spins                              I   N=          14
           1           2           1           1           3           0
           1           1           3           2           1           1
           1           1
Nuclear ZEff                               R   N=          14
 -1.17624000E+03 -4.55000000E+00 -1.00000000E+00 -1.00000000E+00 -1.42400000E+01
 -5.60000000E+00 -1.00000000E+00 -1.00000000E+00 -1.42400000E+01 -4.55000000E+00
 -1.00000000E+00 -1.00000000E+00 -1.00000000E+00 -1.00000000E+00
Nuclear ZNuc                               R   N=          14
  7.80000000E+01  7.00000000E+00  1.00000000E+00  1.00000000E+00  1.70000000E+01
  8.00000000E+00  1.00000000E+00  1.00000000E+00  1.70000000E+01  7.00000000E+00
  1.00000000E+00  1.00000000E+00  1.00000000E+00  1.00000000E+00
Nuclear QMom                               R   N=          14
  0.00000000E+00  2.04400000E+00  0.00000000E+00  0.00000000E+00 -8.16500000E+00
  0.00000000E+00  0.00000000E+00  0.00000000E+00 -8.16500000E+00  2.04400000E+00
  0.00000000E+00  0.00000000E+00  0.00000000E+00  0.00000000E+00
Nuclear GFac                               R   N=          14
  6.09500000E-01  4.03761000E-01  2.79284600E+00  2.79284600E+00  8.21874000E-01
  0.00000000E+00  2.79284600E+00  2.79284600E+00  8.21874000E-01  4.03761000E-01
  2.79284600E+00  2.79284600E+00  2.79284600E+00  2.79284600E+00
MicOpt                                     I   N=          14
          -1          -1          -1          -1          -1          -1
          -1          -1          -1          -1          -1          -1
          -1          -1
Number of contracted shells                I              105
Number of primitive shells                 I              184
Pure/Cartesian d shells                    I                0
Pure/Cartesian f shells                    I                0
Highest angular momentum                   I                3
Largest degree of contraction              I                7
Shell types                                I   N=         105
           0           0           0           0           0           0
           1           1           1           1          -2          -2
          -2          -3           0           0           0           0
           0           1           1           1          -2          -2
          -3           0           0           0           1           0
           0           0           1           0           0           0
           0           0           1           1           1           1
           1          -2          -2          -3           0           0
           0           0           0           1           1           1
          -2          -2          -3           0           0           0
           1           0           0           0           1           0
           0           0           0           0           1           1
           1           1           1          -2          -2          -3
           0           0           0           0           0           1
           1           1          -2          -2          -3           0
           0           0           1           0           0           0
           1           0           0           0           1           0
           0           0           1
Number of primitives per shell             I   N=         105
           3           1           1           1           1           1
           4           1           1           1           4           1
           1           1           6           2           1           1
           1           4           1           1           1           1
           1           3           1           1           1           3
           1           1           1           7           3           2
           1           1           5           1           1           1
           1           2           1           1           6           2
           1           1           1           4           1           1
           1           1           1           3           1           1
           1           3           1           1           1           7
           3           2           1           1           5           1
           1           1           1           2           1           1
           6           2           1           1           1           4
           1           1           1           1           1           3
           1           1           1           3           1           1
           1           3           1           1           1           3
           1           1           1
Shell to atom map                          I   N=         105
           1           1           1           1           1           1
           1           1           1           1           1           1
           1           1           2           2           2           2
           2           2           2           2           2           2
           2           3           3           3           3           4
           4           4           4           5           5           5
           5           5           5           5           5           5
           5           5           5           5           6           6
           6           6           6           6           6           6
           6           6           6           7           7           7
           7           8           8           8           8           9
           9           9           9           9           9           9
           9           9           9           9           9           9
          10          10          10          10          10          10
          10          10          10          10          10          11
          11          11          11          12          12          12
          12          13          13          13          13          14
          14          14          14
Primitive exponents                        R   N=         184
  3.00000000E+01  2.70000000E+01  1.44083186E+01  5.53357880E+00  1.29864382E+00
  5.87593931E-01  1.38455873E-01  4.92044599E-02  1.55000000E+01  1.40000000E+01
  6.11612123E+00  1.57155864E+00  7.51325108E-01  3.33064668E-01  5.70000000E-02
  8.32079376E+00  7.42072265E+00  1.65704106E+00  7.39435700E-01  3.05108560E-01
  1.13504053E-01  6.68130000E-01  1.97308006E+04  2.95789587E+03  6.73221336E+02
  1.90682495E+02  6.22954419E+01  2.26541612E+01  8.97914774E+00  3.68630024E+00
  8.46600768E-01  3.36471338E-01  1.36476537E-01  4.92003805E+01  1.13467905E+01
  3.42739724E+00  1.17855251E+00  4.16422050E-01  1.42608260E-01  1.65400000E+00
  4.69000000E-01  1.09300000E+00  3.40613410E+01  5.12357460E+00  1.16466260E+00
  3.27230410E-01  1.03072410E-01  8.00000000E-01  3.40613410E+01  5.12357460E+00
  1.16466260E+00  3.27230410E-01  1.03072410E-01  8.00000000E-01  6.95079909E+04
  1.04261569E+04  2.37323341E+03  6.71564201E+02  2.18419998E+02  7.75722497E+01
  2.88888153E+01  1.27105272E+02  3.93395830E+01  7.67406800E+00  3.87456276E+00
  1.83858326E+00  5.02290575E-01  1.79627234E-01  6.66504233E+02  1.57642417E+02
  5.02625210E+01  1.85360781E+01  7.29405328E+00  2.94332490E+00  1.04049708E+00
  3.84564151E-01  1.30696427E-01  4.61000000E+00  1.01100000E+00  3.39000000E-01
  7.06000000E-01  2.70323826E+04  4.05238714E+03  9.22327227E+02  2.61240710E+02
  8.53546414E+01  3.10350352E+01  1.22608607E+01  4.99870760E+00  1.17031082E+00
  4.64747410E-01  1.85045364E-01  6.32749548E+01  1.46270494E+01  4.45012235E+00
  1.52757996E+00  5.29351179E-01  1.74784213E-01  2.31400000E+00  6.45000000E-01
  1.42800000E+00  3.40613410E+01  5.12357460E+00  1.16466260E+00  3.27230410E-01
  1.03072410E-01  8.00000000E-01  3.40613410E+01  5.12357460E+00  1.16466260E+00
  3.27230410E-01  1.03072410E-01  8.00000000E-01  6.95079909E+04  1.04261569E+04
  2.37323341E+03  6.71564201E+02  2.18419998E+02  7.75722497E+01  2.88888153E+01
  1.27105272E+02  3.93395830E+01  7.67406800E+00  3.87456276E+00  1.83858326E+00
  5.02290575E-01  1.79627234E-01  6.66504233E+02  1.57642417E+02  5.02625210E+01
  1.85360781E+01  7.29405328E+00  2.94332490E+00  1.04049708E+00  3.84564151E-01
  1.30696427E-01  4.61000000E+00  1.01100000E+00  3.39000000E-01  7.06000000E-01
  1.97308006E+04  2.95789587E+03  6.73221336E+02  1.90682495E+02  6.22954419E+01
  2.26541612E+01  8.97914774E+00  3.68630024E+00  8.46600768E-01  3.36471338E-01
  1.36476537E-01  4.92003805E+01  1.13467905E+01  3.42739724E+00  1.17855251E+00
  4.16422050E-01  1.42608260E-01  1.65400000E+00  4.69000000E-01  1.09300000E+00
  3.40613410E+01  5.12357460E+00  1.16466260E+00  3.27230410E-01  1.03072410E-01
  8.00000000E-01  3.40613410E+01  5.12357460E+00  1.16466260E+00  3.27230410E-01
  1.03072410E-01  8.00000000E-01  3.40613410E+01  5.12357460E+00  1.16466260E+00
  3.27230410E-01  1.03072410E-01  8.00000000E-01  3.40613410E+01  5.12357460E+00
  1.16466260E+00  3.27230410E-01  1.03072410E-01  8.00000000E-01
Contraction coefficients                   R   N=         184
  9.05493829E-01 -1.40841674E+00  1.47962090E+00  1.00000000E+00  1.00000000E+00
  1.00000000E+00  1.00000000E+00  1.00000000E+00 -3.47854184E-01  5.29423753E-01
 -6.88959846E-01  1.25342338E+00  1.00000000E+00  1.00000000E+00  1.00000000E+00
  1.63515557E-01 -2.34500978E-01  4.36742354E-01  6.50609794E-01  1.00000000E+00
  1.00000000E+00  1.00000000E+00  5.86264026E-04  4.54288206E-03  2.35584135E-02
  9.47091933E-02  2.97197849E-01  6.69162469E-01  6.45966836E-01  3.87005744E-01
  1.00000000E+00  1.00000000E+00  1.00000000E+00  1.14488251E-02  7.84223380E-02
  3.08180947E-01  7.20271964E-01  1.00000000E+00  1.00000000E+00  1.00000000E+00
  1.00000000E+00  1.00000000E+00  2.54393072E-02  1.90085949E-01  8.52441130E-01
  1.00000000E+00  1.00000000E+00  1.00000000E+00  2.54393072E-02  1.90085949E-01
  8.52441130E-01  1.00000000E+00  1.00000000E+00  1.00000000E+00  5.14573896E-04
  3.97813448E-03  2.04561787E-02  8.01481029E-02  2.34547703E-01  4.45433686E-01
  3.54668425E-01  1.12936881E-01  4.83735142E-01 -1.22922974E+00  6.72968216E-01
  3.49560514E-01  1.00000000E+00  1.00000000E+00  3.35025082E-03  2.67639704E-02
  1.23626824E-01  3.58457879E-01  6.16772964E-01  1.00000000E+00  1.00000000E+00
  1.00000000E+00  1.00000000E+00  1.82658350E-01  9.13291752E-01  1.00000000E+00
  1.00000000E+00  5.72273352E-04  4.43532335E-03  2.30201077E-02  9.28224907E-02
  2.93785000E-01  6.74016045E-01  6.38399370E-01  3.95345871E-01  1.00000000E+00
  1.00000000E+00  1.00000000E+00  1.20183322E-02  8.30054218E-02  3.19917439E-01
  7.07155429E-01  1.00000000E+00  1.00000000E+00  1.00000000E+00  1.00000000E+00
  1.00000000E+00  2.54393072E-02  1.90085949E-01  8.52441130E-01  1.00000000E+00
  1.00000000E+00  1.00000000E+00  2.54393072E-02  1.90085949E-01  8.52441130E-01
  1.00000000E+00  1.00000000E+00  1.00000000E+00  5.14573896E-04  3.97813448E-03
  2.04561787E-02  8.01481029E-02  2.34547703E-01  4.45433686E-01  3.54668425E-01
  1.12936881E-01  4.83735142E-01 -1.22922974E+00  6.72968216E-01  3.49560514E-01
  1.00000000E+00  1.00000000E+00  3.35025082E-03  2.67639704E-02  1.23626824E-01
  3.58457879E-01  6.16772964E-01  1.00000000E+00  1.00000000E+00  1.00000000E+00
  1.00000000E+00  1.82658350E-01  9.13291752E-01  1.00000000E+00  1.00000000E+00
  5.86264026E-04  4.54288206E-03  2.35584135E-02  9.47091933E-02  2.97197849E-01
  6.69162469E-01  6.45966836E-01  3.87005744E-01  1.00000000E+00  1.00000000E+00
  1.00000000E+00  1.14488251E-02  7.84223380E-02  3.08180947E-01  7.20271964E-01
  1.00000000E+00  1.00000000E+00  1.00000000E+00  1.00000000E+00  1.00000000E+00
  2.54393072E-02  1.90085949E-01  8.52441130E-01  1.00000000E+00  1.00000000E+00
  1.00000000E+00  2.54393072E-02  1.90085949E-01  8.52441130E-01  1.00000000E+00
  1.00000000E+00  1.00000000E+00  2.54393072E-02  1.90085949E-01  8.52441130E-01
  1.00000000E+00  1.00000000E+00  1.00000000E+00  2.54393072E-02  1.90085949E-01
  8.52441130E-01  1.00000000E+00  1.00000000E+00  1.00000000E+00
Coordinates of each shell                  R   N=         315
  3.69735873E-01 -1.20223361E-01  2.09920641E-01  3.69735873E-01 -1.20223361E-01
  2.09920641E-01  3.69735873E-01 -1.20223361E-01  2.09920641E-01  3.69735873E-01
 -1.20223361E-01  2.09920641E-01  3.69735873E-01 -1.20223361E-01  2.09920641E-01
  3.69735873E-01 -1.20223361E-01  2.09920641E-01  3.69735873E-01 -1.20223361E-01
  2.09920641E-01  3.69735873E-01 -1.20223361E-01  2.09920641E-01  3.69735873E-01
 -1.20223361E-01  2.09920641E-01  3.69735873E-01 -1.20223361E-01  2.09920641E-01
  3.69735873E-01 -1.20223361E-01  2.09920641E-01  3.69735873E-01 -1.20223361E-01
  2.09920641E-01  3.69735873E-01 -1.20223361E-01  2.09920641E-01  3.69735873E-01
 -1.20223361E-01  2.09920641E-01  9.26074991E-01 -3.73693557E+00 -1.10186703E+00
  9.26074991E-01 -3.73693557E+00 -1.10186703E+00  9.26074991E-01 -3.73693557E+00
 -1.10186703E+00  9.26074991E-01 -3.73693557E+00 -1.10186703E+00  9.26074991E-01
 -3.73693557E+00 -1.10186703E+00  9.26074991E-01 -3.73693557E+00 -1.10186703E+00
  9.26074991E-01 -3.73693557E+00 -1.10186703E+00  9.26074991E-01 -3.73693557E+00
 -1.10186703E+00  9.26074991E-01 -3.73693557E+00 -1.10186703E+00  9.26074991E-01
 -3.73693557E+00 -1.10186703E+00  9.26074991E-01 -3.73693557E+00 -1.10186703E+00
  1.54919404E-01 -4.99033305E+00  1.33378839E-01  1.54919404E-01 -4.99033305E+00
  1.33378839E-01  1.54919404E-01 -4.99033305E+00  1.33378839E-01  1.54919404E-01
 -4.99033305E+00  1.33378839E-01  4.87843813E-02 -3.93427202E+00 -2.80041556E+00
  4.87843813E-02 -3.93427202E+00 -2.80041556E+00  4.87843813E-02 -3.93427202E+00
 -2.80041556E+00  4.87843813E-02 -3.93427202E+00 -2.80041556E+00  4.49508865E+00
  8.60827317E-01 -6.86156517E-01  4.49508865E+00  8.60827317E-01 -6.86156517E-01
  4.49508865E+00  8.60827317E-01 -6.86156517E-01  4.49508865E+00  8.60827317E-01
 -6.86156517E-01  4.49508865E+00  8.60827317E-01 -6.86156517E-01  4.49508865E+00
  8.60827317E-01 -6.86156517E-01  4.49508865E+00  8.60827317E-01 -6.86156517E-01
  4.49508865E+00  8.60827317E-01 -6.86156517E-01  4.49508865E+00  8.60827317E-01
 -6.86156517E-01  4.49508865E+00  8.60827317E-01 -6.86156517E-01  4.49508865E+00
  8.60827317E-01 -6.86156517E-01  4.49508865E+00  8.60827317E-01 -6.86156517E-01
  4.49508865E+00  8.60827317E-01 -6.86156517E-01 -3.11365625E+00 -2.30817206E+00
  2.25043667E+00 -3.11365625E+00 -2.30817206E+00  2.25043667E+00 -3.11365625E+00
 -2.30817206E+00  2.25043667E+00 -3.11365625E+00 -2.30817206E+00  2.25043667E+00
 -3.11365625E+00 -2.30817206E+00  2.25043667E+00 -3.11365625E+00 -2.30817206E+00
  2.25043667E+00 -3.11365625E+00 -2.30817206E+00  2.25043667E+00 -3.11365625E+00
 -2.30817206E+00  2.25043667E+00 -3.11365625E+00 -2.30817206E+00  2.25043667E+00
 -3.11365625E+00 -2.30817206E+00  2.25043667E+00 -3.11365625E+00 -2.30817206E+00
  2.25043667E+00 -4.29027146E+00 -1.37246650E+00  1.10268324E+00 -4.29027146E+00
 -1.37246650E+00  1.10268324E+00 -4.29027146E+00 -1.37246650E+00  1.10268324E+00
 -4.29027146E+00 -1.37246650E+00  1.10268324E+00 -3.47298498E+00 -1.76182298E+00
  3.95035169E+00 -3.47298498E+00 -1.76182298E+00  3.95035169E+00 -3.47298498E+00
 -1.76182298E+00  3.95035169E+00 -3.47298498E+00 -1.76182298E+00  3.95035169E+00
 -4.64049244E+00  1.06708133E+00 -1.72150575E+00 -4.64049244E+00  1.06708133E+00
 -1.72150575E+00 -4.64049244E+00  1.06708133E+00 -1.72150575E+00 -4.64049244E+00
  1.06708133E+00 -1.72150575E+00 -4.64049244E+00  1.06708133E+00 -1.72150575E+00
 -4.64049244E+00  1.06708133E+00 -1.72150575E+00 -4.64049244E+00  1.06708133E+00
 -1.72150575E+00 -4.64049244E+00  1.06708133E+00 -1.72150575E+00 -4.64049244E+00
  1.06708133E+00 -1.72150575E+00 -4.64049244E+00  1.06708133E+00 -1.72150575E+00
 -4.64049244E+00  1.06708133E+00 -1.72150575E+00 -4.64049244E+00  1.06708133E+00
 -1.72150575E+00 -4.64049244E+00  1.06708133E+00 -1.72150575E+00 -2.75959970E-01
  3.55639505E+00  1.28451077E+00 -2.75959970E-01  3.55639505E+00  1.28451077E+00
 -2.75959970E-01  3.55639505E+00  1.28451077E+00 -2.75959970E-01  3.55639505E+00
  1.28451077E+00 -2.75959970E-01  3.55639505E+00  1.28451077E+00 -2.75959970E-01
  3.55639505E+00  1.28451077E+00 -2.75959970E-01  3.55639505E+00  1.28451077E+00
 -2.75959970E-01  3.55639505E+00  1.28451077E+00 -2.75959970E-01  3.55639505E+00
  1.28451077E+00 -2.75959970E-01  3.55639505E+00  1.28451077E+00 -2.75959970E-01
  3.55639505E+00  1.28451077E+00 -1.98377300E+00  3.96373549E+00  4.60900039E-01
 -1.98377300E+00  3.96373549E+00  4.60900039E-01 -1.98377300E+00  3.96373549E+00
  4.60900039E-01 -1.98377300E+00  3.96373549E+00  4.60900039E-01 -3.73297693E-01
  3.83279771E+00  3.18009613E+00 -3.73297693E-01  3.83279771E+00  3.18009613E+00
 -3.73297693E-01  3.83279771E+00  3.18009613E+00 -3.73297693E-01  3.83279771E+00
  3.18009613E+00  2.80182406E+00 -4.09138907E+00 -1.32442990E+00  2.80182406E+00
 -4.09138907E+00 -1.32442990E+00  2.80182406E+00 -4.09138907E+00 -1.32442990E+00
  2.80182406E+00 -4.09138907E+00 -1.32442990E+00  1.10571058E+00  4.68588563E+00
  5.71884394E-01  1.10571058E+00  4.68588563E+00  5.71884394E-01  1.10571058E+00
  4.68588563E+00  5.71884394E-01  1.10571058E+00  4.68588563E+00  5.71884394E-01
Constraint Structure                       R   N=          42
  3.30035137E-01  2.38901753E-02  2.12375421E-01  1.54184211E-01 -3.84842510E+00
  4.83150499E-01 -5.79745816E-01 -4.40109051E+00  2.17272440E+00 -9.94561507E-01
 -4.52411918E+00 -9.03938718E-01  4.56269094E+00 -1.75132625E-01 -8.78867722E-01
 -3.16770995E+00  2.31641512E-01  3.24202782E+00 -4.34805180E+00  1.97702204E-01
  1.80465110E+00 -3.19618409E+00  1.95251684E+00  3.85943158E+00 -4.45889752E+00
 -2.03291995E-01 -2.17428632E+00  3.98923784E-01  3.90345823E+00 -1.02413269E-01
 -9.50299014E-01  4.49368604E+00 -1.33917288E+00  5.24180560E-02  4.75160328E+00
  1.58903524E+00  1.87777306E+00 -4.67533549E+00  2.87735809E-01  2.10134603E+00
  4.53645765E+00 -7.33513767E-01
Num ILSW                                   I              100
ILSW                                       I   N=         100
           0           0           0           0           2           0
           0           0           0           0         402          -1
           0           0           0           0           2           0
           0           0           0           0           1           0
           1           0           0           0           0           0
           0           0      100000           0          -1           0
           0           0           0           0           0           0
           0           0           0           1           0           0
           0           0           1           0           0           0
           0           0         141          41           0           0
           0           0           5           0           0           0
           0           0           0          14           0           0
           0           0           0           0           0           0
           0           0           0           0           0           0
           0           0           0           0           0           0
           0           0           0           0           0           0
           0           0           0           0
Num RLSW                                   I               41
RLSW                                       R   N=          41
  8.00000000E-01  7.20000000E-01  1.00000000E+00  8.10000000E-01  2.00000000E-01
  0.00000000E+00  0.00000000E+00  1.00000000E+00  0.00000000E+00  0.00000000E+00
  0.00000000E+00  0.00000000E+00  1.00000000E+00  0.00000000E+00  0.00000000E+00
  0.00000000E+00  0.00000000E+00  1.00000000E+00  0.00000000E+00  0.00000000E+00
  0.00000000E+00  0.00000000E+00  1.00000000E+00  0.00000000E+00  0.00000000E+00
  0.00000000E+00  0.00000000E+00  1.00000000E+00  0.00000000E+00  0.00000000E+00
  0.00000000E+00  0.00000000E+00  1.00000000E+00  0.00000000E+00  0.00000000E+00
  0.00000000E+00  0.00000000E+00  0.00000000E+00  1.00000000E+00  1.00000000E+00
  0.00000000E+00
ECP-MxAtEC                                 I           250000
ECP-MaxLECP                                I               10
ECP-MaxAtL                                 I          2250000
ECP-MxTECP                                 I         11250000
ECP-LenNCZ                                 I                9
ECP-KFirst                                 I   N=         140
           1           0           0           0           0           0
           0           0           0           0           0           0
           0           0           2           0           0           0
           0           0           0           0           0           0
           0           0           0           0           4           0
           0           0           0           0           0           0
           0           0           0           0           0           0
           6           0           0           0           0           0
           0           0           0           0           0           0
           0           0           8           0           0           0
           0           0           0           0           0           0
           0           0           0           0           9           0
           0           0           0           0           0           0
           0           0           0           0           0           0
           0           0           0           0           0           0
           0           0           0           0           0           0
           0           0           0           0           0           0
           0           0           0           0           0           0
           0           0           0           0           0           0
           0           0           0           0           0           0
           0           0           0           0           0           0
           0           0           0           0           0           0
           0           0           0           0           0           0
           0           0
ECP-KLast                                  I   N=         140
           1           0           0           0           0           0
           0           0           0           0           0           0
           0           0           3           0           0           0
           0           0           0           0           0           0
           0           0           0           0           5           0
           0           0           0           0           0           0
           0           0           0           0           0           0
           7           0           0           0           0           0
           0           0           0           0           0           0
           0           0           8           0           0           0
           0           0           0           0           0           0
           0           0           0           0           9           0
           0           0           0           0           0           0
           0           0           0           0           0           0
           0           0           0           0           0           0
           0           0           0           0           0           0
           0           0           0           0           0           0
           0           0           0           0           0           0
           0           0           0           0           0           0
           0           0           0           0           0           0
           0           0           0           0           0           0
           0           0           0           0           0           0
           0           0           0           0           0           0
           0           0
ECP-LMax                                   I   N=          14
           5           0           0           0           0           0
           0           0           0           0           0           0
           0           0
ECP-LPSkip                                 I   N=          14
           0           1           1           1           1           1
           1           1           1           1           1           1
           1           1
ECP-RNFroz                                 R   N=          14
  6.00000000E+01  0.00000000E+00  0.00000000E+00  0.00000000E+00  0.00000000E+00
  0.00000000E+00  0.00000000E+00  0.00000000E+00  0.00000000E+00  0.00000000E+00
  0.00000000E+00  0.00000000E+00  0.00000000E+00  0.00000000E+00
ECP-NLP                                    I   N=           9
           2           2           2           2           2           2
           2           2           2
ECP-CLP1                                   R   N=           9
  0.00000000E+00  5.79223861E+02  2.96694910E+01  2.80860774E+02  2.67453820E+01
  1.20396444E+02  1.58109210E+01  2.43143760E+01 -2.42186750E+01
ECP-CLP2                                   R   N=           9
  0.00000000E+00  0.00000000E+00  0.00000000E+00  0.00000000E+00  0.00000000E+00
  0.00000000E+00  0.00000000E+00  0.00000000E+00  0.00000000E+00
ECP-ZLP                                    R   N=           9
  1.00000000E+00  1.34286510E+01  6.71432600E+00  1.03659440E+01  5.18297200E+00
  7.60047900E+00  3.80024000E+00  3.30956900E+00  5.27728900E+00
MxBond                                     I                4
NBond                                      I   N=          14
           4           4           1           1           1           3
           2           2           1           4           1           2
           1           1
IBond                                      I   N=          56
           2           5           6          10           1           3
           4          13           2           0           0           0
           2           0           0           0           1           0
           0           0           1           7           8           0