 Entering Gaussian System, Link 0=g09
 Input=pt-n-o.gjf
 Output=pt-n-o.log
 Initial command:
 /home/scicons/Gaussian09D/Gaussian09.D01/l1.exe "/tmp/Gau-35591.inp" -scrdir="/tmp/"
 Entering Link 1 = /home/scicons/Gaussian09D/Gaussian09.D01/l1.exe PID=     35592.
  
 Copyright (c) 1988,1990,1992,1993,1995,1998,2003,2009,2013,
            Gaussian, Inc.  All Rights Reserved.
  
 This is part of the Gaussian(R) 09 program.  It is based on
 the Gaussian(R) 03 system (copyright 2003, Gaussian, Inc.),
 the Gaussian(R) 98 system (copyright 1998, Gaussian, Inc.),
 the Gaussian(R) 94 system (copyright 1995, Gaussian, Inc.),
 the Gaussian 92(TM) system (copyright 1992, Gaussian, Inc.),
 the Gaussian 90(TM) system (copyright 1990, Gaussian, Inc.),
 the Gaussian 88(TM) system (copyright 1988, Gaussian, Inc.),
 the Gaussian 86(TM) system (copyright 1986, Carnegie Mellon
 University), and the Gaussian 82(TM) system (copyright 1983,
 Carnegie Mellon University). Gaussian is a federally registered
 trademark of Gaussian, Inc.
  
 This software contains proprietary and confidential information,
 including trade secrets, belonging to Gaussian, Inc.
  
 This software is provided under written license and may be
 used, copied, transmitted, or stored only in accord with that
 written license.
  
 The following legend is applicable only to US Government
 contracts under FAR:
  
                    RESTRICTED RIGHTS LEGEND
  
 Use, reproduction and disclosure by the US Government is
 subject to restrictions as set forth in subparagraphs (a)
 and (c) of the Commercial Computer Software - Restricted
 Rights clause in FAR 52.227-19.
  
 Gaussian, Inc.
 340 Quinnipiac St., Bldg. 40, Wallingford CT 06492
  
  
 ---------------------------------------------------------------
 Warning -- This program may not be used in any manner that
 competes with the business of Gaussian, Inc. or will provide
 assistance to any competitor of Gaussian, Inc.  The licensee
 of this program is prohibited from giving any competitor of
 Gaussian, Inc. access to this program.  By using this program,
 the user acknowledges that Gaussian, Inc. is engaged in the
 business of creating and licensing software in the field of
 computational chemistry and represents and warrants to the
 licensee that it is not a competitor of Gaussian, Inc. and that
 it will not use this program in any manner prohibited above.
 ---------------------------------------------------------------
  

 Cite this work as:
 Gaussian 09, Revision D.01,
 M. J. Frisch, G. W. Trucks, H. B. Schlegel, G. E. Scuseria, 
 M. A. Robb, J. R. Cheeseman, G. Scalmani, V. Barone, B. Mennucci, 
 G. A. Petersson, H. Nakatsuji, M. Caricato, X. Li, H. P. Hratchian, 
 A. F. Izmaylov, J. Bloino, G. Zheng, J. L. Sonnenberg, M. Hada, 
 M. Ehara, K. Toyota, R. Fukuda, J. Hasegawa, M. Ishida, T. Nakajima, 
 Y. Honda, O. Kitao, H. Nakai, T. Vreven, J. A. Montgomery, Jr., 
 J. E. Peralta, F. Ogliaro, M. Bearpark, J. J. Heyd, E. Brothers, 
 K. N. Kudin, V. N. Staroverov, T. Keith, R. Kobayashi, J. Normand, 
 K. Raghavachari, A. Rendell, J. C. Burant, S. S. Iyengar, J. Tomasi, 
 M. Cossi, N. Rega, J. M. Millam, M. Klene, J. E. Knox, J. B. Cross, 
 V. Bakken, C. Adamo, J. Jaramillo, R. Gomperts, R. E. Stratmann, 
 O. Yazyev, A. J. Austin, R. Cammi, C. Pomelli, J. W. Ochterski, 
 R. L. Martin, K. Morokuma, V. G. Zakrzewski, G. A. Voth, 
 P. Salvador, J. J. Dannenberg, S. Dapprich, A. D. Daniels, 
 O. Farkas, J. B. Foresman, J. V. Ortiz, J. Cioslowski, 
 and D. J. Fox, Gaussian, Inc., Wallingford CT, 2013.
 
 ******************************************
 Gaussian 09:  ES64L-G09RevD.01 24-Apr-2013
                23-Dec-2020 
 ******************************************
 %nproc=24
 Will use up to   24 processors via shared memory.
 %mem=30GB
 %chk=pt-n-o.chk
 ----------------------------------------------------------------------
 #p opt=(calcall, ts, noeigen) b3lyp/def2tzvp em=gd3bj scrf=(smd,solven
 t=water) geom=connectivity
 ----------------------------------------------------------------------
 1/5=1,10=4,11=1,14=-1,18=20,26=3,38=1,57=2/1,3;
 2/9=110,12=2,17=6,18=5,40=1/2;
 3/5=44,7=101,11=2,16=1,25=1,30=1,70=32201,71=2,72=1,74=-5,124=41,140=1/1,2,3;
 4//1;
 5/5=2,38=5,53=1/2;
 8/6=4,10=90,11=11/1;
 11/6=1,8=1,9=11,15=111,16=1/1,2,10;
 10/6=1/2;
 6/7=2,8=2,9=2,10=2,18=1,28=1/1;
 7/10=1,25=1/1,2,3,16;
 1/5=1,10=4,11=1,14=-1,18=20,26=3/3(3);
 2/9=110/2;
 7/8=1,9=1,25=1,44=-1/16;
 99//99;
 2/9=110/2;
 3/5=44,7=101,11=2,16=1,25=1,30=1,70=32205,71=2,72=1,74=-5,124=41,140=1/1,2,3;
 4/5=5,16=3,69=1/1;
 5/5=2,38=5,53=1/2;
 8/6=4,10=90,11=11/1;
 11/6=1,8=1,9=11,15=111,16=1/1,2,10;
 10/6=1/2;
 7/10=1,25=1/1,2,3,16;
 1/5=1,10=4,11=1,14=-1,18=20,26=3/3(-8);
 2/9=110/2;
 6/7=2,8=2,9=2,10=2,18=1,19=2,28=1/1;
 7/8=1,9=1,25=1,44=-1/16;
 99//99;
 Leave Link    1 at Wed Dec 23 10:10:24 2020, MaxMem=  4026531840 cpu:         3.4
 (Enter /home/scicons/Gaussian09D/Gaussian09.D01/l101.exe)
 -------------------
 Title Card Required
 -------------------
 Symbolic Z-matrix:
 Charge =  0 Multiplicity = 1
 Pt                   -2.38916  -0.22167   0. 
 Cl                   -3.52916  -2.19621   0. 
 Cl                   -3.52916   1.75286   0. 
 N                    -2.38916  -0.22167  -1.99 
 H                    -1.90835   0.58932  -2.32333 
 H                    -1.92723  -1.04357  -2.32333 
 O                    -2.38916  -0.22167   1.95 
 H                    -1.55203   0.12243   2.27 
 H                    -3.10573   0.33125   2.27 
 N                    -0.39916  -0.22167   0. 
 H                    -0.06583  -1.06561  -0.42031 
 H                    -0.06583   0.56429  -0.52072 
 H                    -0.06583  -0.1637    0.94103 
 H                    -3.33191  -0.21078  -2.32333 
 
 NAtoms=     14 NQM=       14 NQMF=       0 NMMI=      0 NMMIF=      0
                NMic=       0 NMicF=      0.
                    Isotopes and Nuclear Properties:
 (Nuclear quadrupole moments (NQMom) in fm**2, nuclear magnetic moments (NMagM)
  in nuclear magnetons)

  Atom         1           2           3           4           5           6           7           8           9          10
 IAtWgt=         195          35          35          14           1           1          16           1           1          14
 AtmWgt= 194.9648000  34.9688527  34.9688527  14.0030740   1.0078250   1.0078250  15.9949146   1.0078250   1.0078250  14.0030740
 NucSpn=           1           3           3           2           1           1           0           1           1           2
 AtZEff=   0.0000000   0.0000000   0.0000000   0.0000000   0.0000000   0.0000000   0.0000000   0.0000000   0.0000000   0.0000000
 NQMom=    0.0000000  -8.1650000  -8.1650000   2.0440000   0.0000000   0.0000000   0.0000000   0.0000000   0.0000000   2.0440000
 NMagM=    0.6095000   0.8218740   0.8218740   0.4037610   2.7928460   2.7928460   0.0000000   2.7928460   2.7928460   0.4037610
 AtZNuc=  78.0000000  17.0000000  17.0000000   7.0000000   1.0000000   1.0000000   8.0000000   1.0000000   1.0000000   7.0000000

  Atom        11          12          13          14
 IAtWgt=           1           1           1           1
 AtmWgt=   1.0078250   1.0078250   1.0078250   1.0078250
 NucSpn=           1           1           1           1
 AtZEff=   0.0000000   0.0000000   0.0000000   0.0000000
 NQMom=    0.0000000   0.0000000   0.0000000   0.0000000
 NMagM=    2.7928460   2.7928460   2.7928460   2.7928460
 AtZNuc=   1.0000000   1.0000000   1.0000000   1.0000000
 Leave Link  101 at Wed Dec 23 10:10:25 2020, MaxMem=  4026531840 cpu:        13.4
 (Enter /home/scicons/Gaussian09D/Gaussian09.D01/l103.exe)

 GradGradGradGradGradGradGradGradGradGradGradGradGradGradGradGradGradGrad
 Berny optimization.
 Initialization pass.
                           ----------------------------
                           !    Initial Parameters    !
                           ! (Angstroms and Degrees)  !
 --------------------------                            --------------------------
 ! Name  Definition              Value          Derivative Info.                !
 --------------------------------------------------------------------------------
 ! R1    R(1,2)                  2.28           calculate D2E/DX2 analytically  !
 ! R2    R(1,3)                  2.28           calculate D2E/DX2 analytically  !
 ! R3    R(1,4)                  1.99           calculate D2E/DX2 analytically  !
 ! R4    R(1,7)                  1.95           calculate D2E/DX2 analytically  !
 ! R5    R(1,10)                 1.99           calculate D2E/DX2 analytically  !
 ! R6    R(4,5)                  1.0            calculate D2E/DX2 analytically  !
 ! R7    R(4,6)                  1.0            calculate D2E/DX2 analytically  !
 ! R8    R(4,14)                 1.0            calculate D2E/DX2 analytically  !
 ! R9    R(7,8)                  0.96           calculate D2E/DX2 analytically  !
 ! R10   R(7,9)                  0.96           calculate D2E/DX2 analytically  !
 ! R11   R(10,11)                1.0            calculate D2E/DX2 analytically  !
 ! R12   R(10,12)                1.0            calculate D2E/DX2 analytically  !
 ! R13   R(10,13)                1.0            calculate D2E/DX2 analytically  !
 ! A1    A(2,1,3)              120.0            calculate D2E/DX2 analytically  !
 ! A2    A(2,1,4)               90.0            calculate D2E/DX2 analytically  !
 ! A3    A(2,1,7)               90.0            calculate D2E/DX2 analytically  !
 ! A4    A(2,1,10)             120.0            calculate D2E/DX2 analytically  !
 ! A5    A(3,1,4)               90.0            calculate D2E/DX2 analytically  !
 ! A6    A(3,1,7)               90.0            calculate D2E/DX2 analytically  !
 ! A7    A(3,1,10)             120.0            calculate D2E/DX2 analytically  !
 ! A8    A(4,1,10)              90.0            calculate D2E/DX2 analytically  !
 ! A9    A(7,1,10)              90.0            calculate D2E/DX2 analytically  !
 ! A10   A(1,4,5)              109.4712         calculate D2E/DX2 analytically  !
 ! A11   A(1,4,6)              109.4712         calculate D2E/DX2 analytically  !
 ! A12   A(1,4,14)             109.4712         calculate D2E/DX2 analytically  !
 ! A13   A(5,4,6)              109.4712         calculate D2E/DX2 analytically  !
 ! A14   A(5,4,14)             109.4712         calculate D2E/DX2 analytically  !
 ! A15   A(6,4,14)             109.4712         calculate D2E/DX2 analytically  !
 ! A16   A(1,7,8)              109.4712         calculate D2E/DX2 analytically  !
 ! A17   A(1,7,9)              109.4712         calculate D2E/DX2 analytically  !
 ! A18   A(8,7,9)              109.4712         calculate D2E/DX2 analytically  !
 ! A19   A(1,10,11)            109.4712         calculate D2E/DX2 analytically  !
 ! A20   A(1,10,12)            109.4712         calculate D2E/DX2 analytically  !
 ! A21   A(1,10,13)            109.4712         calculate D2E/DX2 analytically  !
 ! A22   A(11,10,12)           109.4712         calculate D2E/DX2 analytically  !
 ! A23   A(11,10,13)           109.4712         calculate D2E/DX2 analytically  !
 ! A24   A(12,10,13)           109.4712         calculate D2E/DX2 analytically  !
 ! A25   L(4,1,7,2,-1)         180.0            calculate D2E/DX2 analytically  !
 ! A26   L(4,1,7,2,-2)         180.0            calculate D2E/DX2 analytically  !
 ! D1    D(2,1,4,5)           -179.3376         calculate D2E/DX2 analytically  !
 ! D2    D(2,1,4,6)            -59.3376         calculate D2E/DX2 analytically  !
 ! D3    D(2,1,4,14)            60.6624         calculate D2E/DX2 analytically  !
 ! D4    D(3,1,4,5)             60.6624         calculate D2E/DX2 analytically  !
 ! D5    D(3,1,4,6)           -179.3376         calculate D2E/DX2 analytically  !
 ! D6    D(3,1,4,14)           -59.3376         calculate D2E/DX2 analytically  !
 ! D7    D(10,1,4,5)           -59.3376         calculate D2E/DX2 analytically  !
 ! D8    D(10,1,4,6)            60.6624         calculate D2E/DX2 analytically  !
 ! D9    D(10,1,4,14)         -179.3376         calculate D2E/DX2 analytically  !
 ! D10   D(5,4,7,8)            -36.9925         calculate D2E/DX2 analytically  !
 ! D11   D(5,4,7,9)             83.0075         calculate D2E/DX2 analytically  !
 ! D12   D(6,4,7,8)             83.0075         calculate D2E/DX2 analytically  !
 ! D13   D(6,4,7,9)           -156.9925         calculate D2E/DX2 analytically  !
 ! D14   D(14,4,7,8)          -156.9925         calculate D2E/DX2 analytically  !
 ! D15   D(14,4,7,9)           -36.9925         calculate D2E/DX2 analytically  !
 ! D16   D(2,1,7,8)            142.3451         calculate D2E/DX2 analytically  !
 ! D17   D(2,1,7,9)            -97.6549         calculate D2E/DX2 analytically  !
 ! D18   D(3,1,7,8)            -97.6549         calculate D2E/DX2 analytically  !
 ! D19   D(3,1,7,9)             22.3451         calculate D2E/DX2 analytically  !
 ! D20   D(10,1,7,8)            22.3451         calculate D2E/DX2 analytically  !
 ! D21   D(10,1,7,9)           142.3451         calculate D2E/DX2 analytically  !
 ! D22   D(2,1,10,11)           26.4748         calculate D2E/DX2 analytically  !
 ! D23   D(2,1,10,12)          146.4748         calculate D2E/DX2 analytically  !
 ! D24   D(2,1,10,13)          -93.5252         calculate D2E/DX2 analytically  !
 ! D25   D(3,1,10,11)         -153.5252         calculate D2E/DX2 analytically  !
 ! D26   D(3,1,10,12)          -33.5252         calculate D2E/DX2 analytically  !
 ! D27   D(3,1,10,13)           86.4748         calculate D2E/DX2 analytically  !
 ! D28   D(4,1,10,11)          -63.5252         calculate D2E/DX2 analytically  !
 ! D29   D(4,1,10,12)           56.4748         calculate D2E/DX2 analytically  !
 ! D30   D(4,1,10,13)          176.4748         calculate D2E/DX2 analytically  !
 ! D31   D(7,1,10,11)          116.4748         calculate D2E/DX2 analytically  !
 ! D32   D(7,1,10,12)         -123.5252         calculate D2E/DX2 analytically  !
 ! D33   D(7,1,10,13)           -3.5252         calculate D2E/DX2 analytically  !
 --------------------------------------------------------------------------------
 Trust Radius=3.00D-01 FncErr=1.00D-07 GrdErr=1.00D-06
 Number of steps in this run=     82 maximum allowed number of steps=    100.
 Search for a saddle point of order  1.
 GradGradGradGradGradGradGradGradGradGradGradGradGradGradGradGradGradGrad

 Leave Link  103 at Wed Dec 23 10:10:25 2020, MaxMem=  4026531840 cpu:         0.2
 (Enter /home/scicons/Gaussian09D/Gaussian09.D01/l202.exe)
                          Input orientation:                          
 ---------------------------------------------------------------------
 Center     Atomic      Atomic             Coordinates (Angstroms)
 Number     Number       Type             X           Y           Z
 ---------------------------------------------------------------------
      1         78           0       -2.389163   -0.221675    0.000000
      2         17           0       -3.529163   -2.196213    0.000000
      3         17           0       -3.529163    1.752863    0.000000
      4          7           0       -2.389163   -0.221675   -1.990000
      5          1           0       -1.908350    0.589318   -2.323333
      6          1           0       -1.927228   -1.043567   -2.323333
      7          8           0       -2.389163   -0.221675    1.950000
      8          1           0       -1.552029    0.122429    2.270000
      9          1           0       -3.105732    0.331252    2.270000
     10          7           0       -0.399163   -0.221675    0.000000
     11          1           0       -0.065829   -1.065612   -0.420308
     12          1           0       -0.065829    0.564291   -0.520717
     13          1           0       -0.065829   -0.163704    0.941025
     14          1           0       -3.331909   -0.210776   -2.323333
 ---------------------------------------------------------------------
                    Distance matrix (angstroms):
                    1          2          3          4          5
     1  Pt   0.000000
     2  Cl   2.280000   0.000000
     3  Cl   2.280000   3.949076   0.000000
     4  N    1.990000   3.026301   3.026301   0.000000
     5  H    2.507343   3.972919   3.062474   1.000000   0.000000
     6  H    2.507343   3.048387   3.972919   1.000000   1.632993
     7  O    1.950000   3.000150   3.000150   3.940000   4.376102
     8  H    2.443788   3.799744   3.423488   4.355089   4.630730
     9  H    2.443788   3.423488   2.711673   4.355089   4.753844
    10  N    1.990000   3.700770   3.700770   2.814285   2.886734
    11  H    2.507343   3.667369   4.484990   2.928146   3.123329
    12  H    2.507343   4.459395   3.698449   2.859093   2.577778
    13  H    2.507343   4.124476   4.068591   3.740608   3.823344
    14  H    2.507343   3.062474   3.048387   1.000000   1.632993
                    6          7          8          9         10
     6  H    0.000000
     7  O    4.376102   0.000000
     8  H    4.753844   0.960000   0.000000
     9  H    4.937379   0.960000   1.567673   0.000000
    10  N    2.899719   2.786144   2.569126   3.575493   0.000000
    11  H    2.662104   3.424685   3.295146   4.293017   1.000000
    12  H    3.049498   3.481388   3.192512   4.133209   1.000000
    13  H    3.859404   2.533628   2.014159   3.354425   1.000000
    14  H    1.632993   4.376102   4.937379   4.630730   3.741523
                   11         12         13         14
    11  H    0.000000
    12  H    1.632993   0.000000
    13  H    1.632993   1.632993   0.000000
    14  H    3.875503   3.810174   4.617957   0.000000
 Stoichiometry    Cl2H8N2OPt
 Framework group  C1[X(Cl2H8N2OPt)]
 Deg. of freedom    36
 Full point group                 C1      NOp   1
 Largest Abelian subgroup         C1      NOp   1
 Largest concise Abelian subgroup C1      NOp   1
                         Standard orientation:                         
 ---------------------------------------------------------------------
 Center     Atomic      Atomic             Coordinates (Angstroms)
 Number     Number       Type             X           Y           Z
 ---------------------------------------------------------------------
      1         78           0       -0.006063    0.125014    0.003097
      2         17           0       -1.979212   -1.006128   -0.156897
      3         17           0        1.966545   -1.018321    0.004501
      4          7           0       -0.087624   -0.013267    1.986610
      5          1           0        0.709139    0.440713    2.385446
      6          1           0       -0.922377    0.426923    2.317397
      7          8           0        0.073859    0.260517   -1.940547
      8          1           0        0.430988    1.116796   -2.187213
      9          1           0        0.639267   -0.433788   -2.286748
     10          7           0       -0.005590    2.110195    0.141514
     11          1           0       -0.865965    2.416120    0.549146
     12          1           0        0.758453    2.404110    0.715841
     13          1           0        0.090980    2.507932   -0.770889
     14          1           0       -0.090620   -0.976926    2.253728
 ---------------------------------------------------------------------
 Rotational constants (GHZ):      1.6667382      1.2030054      1.1624527
 Leave Link  202 at Wed Dec 23 10:10:25 2020, MaxMem=  4026531840 cpu:         0.2
 (Enter /home/scicons/Gaussian09D/Gaussian09.D01/l301.exe)
 Standard basis: def2TZVP (5D, 7F)
 Ernie: Thresh=  0.10000D-02 Tol=  0.10000D-05 Strict=F.
 There are   286 symmetry adapted cartesian basis functions of A   symmetry.
 There are   255 symmetry adapted basis functions of A   symmetry.
   255 basis functions,   430 primitive gaussians,   286 cartesian basis functions
    41 alpha electrons       41 beta electrons
       nuclear repulsion energy       563.6982050424 Hartrees.
 IExCor=  402 DFT=T Ex+Corr=B3LYP ExCW=0 ScaHFX=  0.200000
 ScaDFX=  0.800000  0.720000  1.000000  0.810000 ScalE2=  1.000000  1.000000
 IRadAn=      0 IRanWt=     -1 IRanGd=            0 ICorTp=0 IEmpDi=141
 NAtoms=   14 NActive=   14 NUniq=   14 SFac= 1.00D+00 NAtFMM=   60 NAOKFM=F Big=F
 Integral buffers will be    131072 words long.
 Raffenetti 2 integral format.
 Two-electron integral symmetry is turned on.
 R6Disp:  Grimme-D3(BJ) Dispersion energy=       -0.0301016415 Hartrees.
 Nuclear repulsion after empirical dispersion term =      563.6681034009 Hartrees.
 Force inversion solution in PCM.
 ------------------------------------------------------------------------------
 Polarizable Continuum Model (PCM)
 =================================
 Model                : PCM (using non-symmetric T matrix).
 Atomic radii         : SMD-Coulomb.
 Polarization charges : Total charges.
 Charge compensation  : None.
 Solution method      : Matrix inversion.
 Cavity type          : VdW (van der Waals Surface) (Alpha=1.000).
 Cavity algorithm     : GePol (No added spheres)
                        Default sphere list used, NSphG=   14.
                        Lebedev-Laikov grids with approx.  5.0 points / Ang**2.
                        Smoothing algorithm: Karplus/York (Gamma=1.0000).
                        Polarization charges: spherical gaussians, with
                                              point-specific exponents (IZeta= 3).
                        Self-potential: point-specific (ISelfS= 7).
                        Self-field    : sphere-specific E.n sum rule (ISelfD= 2).
 1st derivatives      : Analytical E(r).r(x)/FMM algorithm (CHGder, D1EAlg=3).
                        Cavity 1st derivative terms included.
 2nd derivatives      : Analytical E(r).r(xy)/FMM algorithm (CHGder, D2EAlg=3).
                        Cavity 2nd derivative terms included.
 Solvent              : Water, Eps=  78.355300 Eps(inf)=   1.777849
 ------------------------------------------------------------------------------
 Spheres list:
 ISph  on   Nord     Re0    Alpha      Xe            Ye            Ze
    1  Pt      1    1.7500  1.000     -0.006063      0.125014      0.003097
    2  Cl      2    2.3800  1.000     -1.979212     -1.006128     -0.156897
    3  Cl      3    2.3800  1.000      1.966545     -1.018321      0.004501
    4   N      4    1.8900  1.000     -0.087624     -0.013267      1.986610
    5   H      5    1.2000  1.000      0.709139      0.440713      2.385446
    6   H      6    1.2000  1.000     -0.922377      0.426923      2.317397
    7   O      7    1.5200  1.000      0.073859      0.260517     -1.940547
    8   H      8    1.2000  1.000      0.430988      1.116796     -2.187213
    9   H      9    1.2000  1.000      0.639267     -0.433788     -2.286748
   10   N     10    1.8900  1.000     -0.005590      2.110195      0.141514
   11   H     11    1.2000  1.000     -0.865965      2.416120      0.549146
   12   H     12    1.2000  1.000      0.758453      2.404110      0.715841
   13   H     13    1.2000  1.000      0.090980      2.507932     -0.770889
   14   H     14    1.2000  1.000     -0.090620     -0.976926      2.253728
 ------------------------------------------------------------------------------
 GePol: Number of generator spheres                  =      14
 GePol: Total number of spheres                      =      14
 GePol: Number of exposed spheres                    =      14 (100.00%)
 GePol: Number of points                             =    1370
 GePol: Average weight of points                     =       0.13
 GePol: Minimum weight of points                     =   0.84D-10
 GePol: Maximum weight of points                     =    0.21991
 GePol: Number of points with low weight             =      49
 GePol: Fraction of low-weight points (<1% of avg)   =       3.58%
 GePol: Cavity surface area                          =    184.430 Ang**2
 GePol: Cavity volume                                =    171.648 Ang**3
 ------------------------------------------------------------------------------
 Atomic radii for non-electrostatic terms: SMD-CDS.
 ------------------------------------------------------------------------------
 PCM non-electrostatic energy =         0.0086079360 Hartrees.
 Nuclear repulsion after PCM non-electrostatic terms =      563.6767113369 Hartrees.
 Leave Link  301 at Wed Dec 23 10:10:25 2020, MaxMem=  4026531840 cpu:         1.6
 (Enter /home/scicons/Gaussian09D/Gaussian09.D01/l302.exe)
 NPDir=0 NMtPBC=     1 NCelOv=     1 NCel=       1 NClECP=     1 NCelD=      1
         NCelK=      1 NCelE2=     1 NClLst=     1 CellRange=     0.0.
 One-electron integrals computed using PRISM.
   1 Symmetry operations used in ECPInt.
 ECPInt:  NShTT=    5565 NPrTT=   17197 LenC2=    5429 LenP2D=   13036.
 LDataN:  DoStor=T MaxTD1= 8 Len=  415
 NBasis=   255 RedAO= T EigKep=  1.44D-03  NBF=   255
 NBsUse=   255 1.00D-06 EigRej= -1.00D+00 NBFU=   255
 Precomputing XC quadrature grid using
 IXCGrd= 4 IRadAn=           0 IRanWt=          -1 IRanGd=           0 AccXCQ= 0.00D+00.
 Defaulting to unpruned grid for atomic number  78.
 Generated NRdTot=       0 NPtTot=           0 NUsed=           0 NTot=          32
 NSgBfM=   284   284   284   284   284 MxSgAt=    14 MxSgA2=    14.
 Leave Link  302 at Wed Dec 23 10:10:27 2020, MaxMem=  4026531840 cpu:        27.9
 (Enter /home/scicons/Gaussian09D/Gaussian09.D01/l303.exe)
 DipDrv:  MaxL=1.
 Leave Link  303 at Wed Dec 23 10:10:27 2020, MaxMem=  4026531840 cpu:         0.7
 (Enter /home/scicons/Gaussian09D/Gaussian09.D01/l401.exe)
 ExpMin= 4.92D-02 ExpMax= 6.95D+04 ExpMxC= 2.37D+03 IAcc=2 IRadAn=         4 AccDes= 0.00D+00
 Harris functional with IExCor=  402 and IRadAn=       4 diagonalized for initial guess.
 HarFok:  IExCor=  402 AccDes= 0.00D+00 IRadAn=         4 IDoV= 1 UseB2=F ITyADJ=14
 ICtDFT=  3500011 ScaDFX=  1.000000  1.000000  1.000000  1.000000
 Defaulting to unpruned grid for atomic number  78.
 Defaulting to unpruned grid for atomic number  78.
 Defaulting to unpruned grid for atomic number  78.
 Defaulting to unpruned grid for atomic number  78.
 Defaulting to unpruned grid for atomic number  78.
 Defaulting to unpruned grid for atomic number  78.
 Defaulting to unpruned grid for atomic number  78.
 Defaulting to unpruned grid for atomic number  78.
 Defaulting to unpruned grid for atomic number  78.
 Defaulting to unpruned grid for atomic number  78.
 Defaulting to unpruned grid for atomic number  78.
 Defaulting to unpruned grid for atomic number  78.
 Defaulting to unpruned grid for atomic number  78.
 Defaulting to unpruned grid for atomic number  78.
 Defaulting to unpruned grid for atomic number  78.
 Defaulting to unpruned grid for atomic number  78.
 Defaulting to unpruned grid for atomic number  78.
 Defaulting to unpruned grid for atomic number  78.
 Defaulting to unpruned grid for atomic number  78.
 Defaulting to unpruned grid for atomic number  78.
 Defaulting to unpruned grid for atomic number  78.
 Defaulting to unpruned grid for atomic number  78.
 Defaulting to unpruned grid for atomic number  78.
 Defaulting to unpruned grid for atomic number  78.
 FoFCou: FMM=F IPFlag=           0 FMFlag=      100000 FMFlg1=           0
         NFxFlg=           0 DoJE=T BraDBF=F KetDBF=T FulRan=T
         wScrn=  0.000000 ICntrl=     500 IOpCl=  0 I1Cent=   200000004 NGrid=           0
         NMat0=    1 NMatS0=      1 NMatT0=    0 NMatD0=    1 NMtDS0=    0 NMtDT0=    0
 Petite list used in FoFCou.
 Harris En= -1229.10001881541    
 JPrj=0 DoOrth=F DoCkMO=F.
 Leave Link  401 at Wed Dec 23 10:10:28 2020, MaxMem=  4026531840 cpu:        20.1
 (Enter /home/scicons/Gaussian09D/Gaussian09.D01/l502.exe)
 Closed shell SCF:
 Using DIIS extrapolation, IDIIS=  1040.
 Integral symmetry usage will be decided dynamically.
 Keep R1 ints in memory in canonical form, NReq=544793834.
 IVT=      272906 IEndB=      272906 NGot=  4026531840 MDV=  3493557815
 LenX=  3493557815 LenY=  3493475578
 Requested convergence on RMS density matrix=1.00D-08 within 128 cycles.
 Requested convergence on MAX density matrix=1.00D-06.
 Requested convergence on             energy=1.00D-06.
 No special actions if energy rises.
 FoFCou: FMM=F IPFlag=           0 FMFlag=           0 FMFlg1=           0
         NFxFlg=           0 DoJE=F BraDBF=F KetDBF=F FulRan=T
         wScrn=  0.000000 ICntrl=     600 IOpCl=  0 I1Cent=           0 NGrid=           0
         NMat0=    1 NMatS0=  32640 NMatT0=    0 NMatD0=    1 NMtDS0=    0 NMtDT0=    0
 Symmetry not used in FoFCou.

 Cycle   1  Pass 1  IDiag  1:
 Defaulting to unpruned grid for atomic number  78.
 Defaulting to unpruned grid for atomic number  78.
 Defaulting to unpruned grid for atomic number  78.
 Defaulting to unpruned grid for atomic number  78.
 Defaulting to unpruned grid for atomic number  78.
 Defaulting to unpruned grid for atomic number  78.
 Defaulting to unpruned grid for atomic number  78.
 Defaulting to unpruned grid for atomic number  78.
 Defaulting to unpruned grid for atomic number  78.
 Defaulting to unpruned grid for atomic number  78.
 Defaulting to unpruned grid for atomic number  78.
 Defaulting to unpruned grid for atomic number  78.
 Defaulting to unpruned grid for atomic number  78.
 Defaulting to unpruned grid for atomic number  78.
 Defaulting to unpruned grid for atomic number  78.
 Defaulting to unpruned grid for atomic number  78.
 Defaulting to unpruned grid for atomic number  78.
 Defaulting to unpruned grid for atomic number  78.
 Defaulting to unpruned grid for atomic number  78.
 Defaulting to unpruned grid for atomic number  78.
 Defaulting to unpruned grid for atomic number  78.
 Defaulting to unpruned grid for atomic number  78.
 Defaulting to unpruned grid for atomic number  78.
 Defaulting to unpruned grid for atomic number  78.
 Inv3:  Mode=1 IEnd=     5630700.
 Iteration    1 A*A^-1 deviation from unit magnitude is 5.55D-15 for   1343.
 Iteration    1 A*A^-1 deviation from orthogonality  is 2.49D-15 for    482     85.
 Iteration    1 A^-1*A deviation from unit magnitude is 5.33D-15 for   1343.
 Iteration    1 A^-1*A deviation from orthogonality  is 2.35D-11 for   1279    569.
 E= -1229.18654063765    
 DIIS: error= 3.61D-02 at cycle   1 NSaved=   1.
 NSaved= 1 IEnMin= 1 EnMin= -1229.18654063765     IErMin= 1 ErrMin= 3.61D-02
 ErrMax= 3.61D-02  0.00D+00 EMaxC= 1.00D-01 BMatC= 6.32D-01 BMatP= 6.32D-01
 IDIUse=3 WtCom= 6.39D-01 WtEn= 3.61D-01
 Coeff-Com:  0.100D+01
 Coeff-En:   0.100D+01
 Coeff:      0.100D+01
 Gap=     0.332 Goal=   None    Shift=    0.000
 GapD=    0.332 DampG=1.000 DampE=0.250 DampFc=0.2500 IDamp=-1.
 Damping current iteration by 2.50D-01
 RMSDP=5.32D-03 MaxDP=3.49D-01              OVMax= 3.45D-01

 Cycle   2  Pass 1  IDiag  1:
 E= -1229.33505987398     Delta-E=       -0.148519236329 Rises=F Damp=T
 DIIS: error= 1.46D-02 at cycle   2 NSaved=   2.
 NSaved= 2 IEnMin= 2 EnMin= -1229.33505987398     IErMin= 2 ErrMin= 1.46D-02
 ErrMax= 1.46D-02  0.00D+00 EMaxC= 1.00D-01 BMatC= 1.01D-01 BMatP= 6.32D-01
 IDIUse=3 WtCom= 8.54D-01 WtEn= 1.46D-01
 Coeff-Com: -0.513D+00 0.151D+01
 Coeff-En:   0.000D+00 0.100D+01
 Coeff:     -0.438D+00 0.144D+01
 Gap=     0.141 Goal=   None    Shift=    0.000
 RMSDP=1.33D-03 MaxDP=7.59D-02 DE=-1.49D-01 OVMax= 2.66D-01

 Cycle   3  Pass 1  IDiag  1:
 E= -1229.56971337845     Delta-E=       -0.234653504472 Rises=F Damp=F
 DIIS: error= 3.32D-03 at cycle   3 NSaved=   3.
 NSaved= 3 IEnMin= 3 EnMin= -1229.56971337845     IErMin= 3 ErrMin= 3.32D-03
 ErrMax= 3.32D-03  0.00D+00 EMaxC= 1.00D-01 BMatC= 7.02D-03 BMatP= 1.01D-01
 IDIUse=3 WtCom= 9.67D-01 WtEn= 3.32D-02
 Coeff-Com: -0.163D+00 0.409D+00 0.754D+00
 Coeff-En:   0.000D+00 0.000D+00 0.100D+01
 Coeff:     -0.158D+00 0.396D+00 0.762D+00
 Gap=     0.154 Goal=   None    Shift=    0.000
 RMSDP=6.08D-04 MaxDP=1.95D-02 DE=-2.35D-01 OVMax= 2.76D-02

 Cycle   4  Pass 1  IDiag  1:
 E= -1229.57234344567     Delta-E=       -0.002630067218 Rises=F Damp=F
 DIIS: error= 3.17D-03 at cycle   4 NSaved=   4.
 NSaved= 4 IEnMin= 4 EnMin= -1229.57234344567     IErMin= 4 ErrMin= 3.17D-03
 ErrMax= 3.17D-03  0.00D+00 EMaxC= 1.00D-01 BMatC= 4.66D-03 BMatP= 7.02D-03
 IDIUse=3 WtCom= 9.68D-01 WtEn= 3.17D-02
 Coeff-Com: -0.474D-01 0.984D-01 0.456D+00 0.493D+00
 Coeff-En:   0.000D+00 0.000D+00 0.380D+00 0.620D+00
 Coeff:     -0.459D-01 0.953D-01 0.453D+00 0.497D+00
 Gap=     0.136 Goal=   None    Shift=    0.000
 RMSDP=2.34D-04 MaxDP=8.13D-03 DE=-2.63D-03 OVMax= 1.33D-02

 Cycle   5  Pass 1  IDiag  1:
 E= -1229.57589268091     Delta-E=       -0.003549235244 Rises=F Damp=F
 DIIS: error= 3.86D-04 at cycle   5 NSaved=   5.
 NSaved= 5 IEnMin= 5 EnMin= -1229.57589268091     IErMin= 5 ErrMin= 3.86D-04
 ErrMax= 3.86D-04  0.00D+00 EMaxC= 1.00D-01 BMatC= 8.13D-05 BMatP= 4.66D-03
 IDIUse=3 WtCom= 9.96D-01 WtEn= 3.86D-03
 Coeff-Com: -0.152D-01 0.301D-01 0.166D+00 0.198D+00 0.621D+00
 Coeff-En:   0.000D+00 0.000D+00 0.000D+00 0.000D+00 0.100D+01
 Coeff:     -0.151D-01 0.299D-01 0.166D+00 0.197D+00 0.622D+00
 Gap=     0.135 Goal=   None    Shift=    0.000
 RMSDP=5.49D-05 MaxDP=2.24D-03 DE=-3.55D-03 OVMax= 3.18D-03

 Cycle   6  Pass 1  IDiag  1:
 E= -1229.57594963897     Delta-E=       -0.000056958060 Rises=F Damp=F
 DIIS: error= 1.96D-04 at cycle   6 NSaved=   6.
 NSaved= 6 IEnMin= 6 EnMin= -1229.57594963897     IErMin= 6 ErrMin= 1.96D-04
 ErrMax= 1.96D-04  0.00D+00 EMaxC= 1.00D-01 BMatC= 2.06D-05 BMatP= 8.13D-05
 IDIUse=3 WtCom= 9.98D-01 WtEn= 1.96D-03
 Coeff-Com: -0.593D-03-0.111D-02 0.248D-01 0.308D-01 0.332D+00 0.614D+00
 Coeff-En:   0.000D+00 0.000D+00 0.000D+00 0.000D+00 0.155D+00 0.845D+00
 Coeff:     -0.592D-03-0.111D-02 0.248D-01 0.307D-01 0.331D+00 0.615D+00
 Gap=     0.135 Goal=   None    Shift=    0.000
 RMSDP=1.42D-05 MaxDP=6.33D-04 DE=-5.70D-05 OVMax= 7.67D-04

 Cycle   7  Pass 1  IDiag  1:
 E= -1229.57596394020     Delta-E=       -0.000014301229 Rises=F Damp=F
 DIIS: error= 2.89D-05 at cycle   7 NSaved=   7.
 NSaved= 7 IEnMin= 7 EnMin= -1229.57596394020     IErMin= 7 ErrMin= 2.89D-05
 ErrMax= 2.89D-05  0.00D+00 EMaxC= 1.00D-01 BMatC= 4.42D-07 BMatP= 2.06D-05
 IDIUse=1 WtCom= 1.00D+00 WtEn= 0.00D+00
 Coeff-Com:  0.218D-03-0.122D-02 0.593D-02 0.718D-02 0.119D+00 0.239D+00
 Coeff-Com:  0.630D+00
 Coeff:      0.218D-03-0.122D-02 0.593D-02 0.718D-02 0.119D+00 0.239D+00
 Coeff:      0.630D+00
 Gap=     0.135 Goal=   None    Shift=    0.000
 RMSDP=2.66D-06 MaxDP=9.04D-05 DE=-1.43D-05 OVMax= 1.71D-04

 Cycle   8  Pass 1  IDiag  1:
 E= -1229.57596421043     Delta-E=       -0.000000270223 Rises=F Damp=F
 DIIS: error= 1.68D-05 at cycle   8 NSaved=   8.
 NSaved= 8 IEnMin= 8 EnMin= -1229.57596421043     IErMin= 8 ErrMin= 1.68D-05
 ErrMax= 1.68D-05  0.00D+00 EMaxC= 1.00D-01 BMatC= 1.11D-07 BMatP= 4.42D-07
 IDIUse=1 WtCom= 1.00D+00 WtEn= 0.00D+00
 Coeff-Com:  0.252D-03-0.344D-03-0.258D-02-0.349D-02-0.455D-02-0.380D-02
 Coeff-Com:  0.333D+00 0.682D+00
 Coeff:      0.252D-03-0.344D-03-0.258D-02-0.349D-02-0.455D-02-0.380D-02
 Coeff:      0.333D+00 0.682D+00
 Gap=     0.135 Goal=   None    Shift=    0.000
 RMSDP=1.67D-06 MaxDP=8.22D-05 DE=-2.70D-07 OVMax= 1.02D-04

 Cycle   9  Pass 1  IDiag  1:
 E= -1229.57596429756     Delta-E=       -0.000000087137 Rises=F Damp=F
 DIIS: error= 2.98D-06 at cycle   9 NSaved=   9.
 NSaved= 9 IEnMin= 9 EnMin= -1229.57596429756     IErMin= 9 ErrMin= 2.98D-06
 ErrMax= 2.98D-06  0.00D+00 EMaxC= 1.00D-01 BMatC= 3.59D-09 BMatP= 1.11D-07
 IDIUse=1 WtCom= 1.00D+00 WtEn= 0.00D+00
 Coeff-Com:  0.912D-04-0.100D-03-0.128D-02-0.175D-02-0.588D-02-0.102D-01
 Coeff-Com:  0.121D+00 0.305D+00 0.593D+00
 Coeff:      0.912D-04-0.100D-03-0.128D-02-0.175D-02-0.588D-02-0.102D-01
 Coeff:      0.121D+00 0.305D+00 0.593D+00
 Gap=     0.135 Goal=   None    Shift=    0.000
 RMSDP=2.71D-07 MaxDP=1.36D-05 DE=-8.71D-08 OVMax= 1.80D-05

 Cycle  10  Pass 1  IDiag  1:
 E= -1229.57596430047     Delta-E=       -0.000000002904 Rises=F Damp=F
 DIIS: error= 1.16D-06 at cycle  10 NSaved=  10.
 NSaved=10 IEnMin=10 EnMin= -1229.57596430047     IErMin=10 ErrMin= 1.16D-06
 ErrMax= 1.16D-06  0.00D+00 EMaxC= 1.00D-01 BMatC= 3.91D-10 BMatP= 3.59D-09
 IDIUse=1 WtCom= 1.00D+00 WtEn= 0.00D+00
 Coeff-Com:  0.140D-04-0.854D-05-0.389D-03-0.554D-03-0.227D-02-0.422D-02
 Coeff-Com:  0.275D-01 0.868D-01 0.288D+00 0.605D+00
 Coeff:      0.140D-04-0.854D-05-0.389D-03-0.554D-03-0.227D-02-0.422D-02
 Coeff:      0.275D-01 0.868D-01 0.288D+00 0.605D+00
 Gap=     0.135 Goal=   None    Shift=    0.000
 RMSDP=1.20D-07 MaxDP=7.42D-06 DE=-2.90D-09 OVMax= 9.76D-06

 Cycle  11  Pass 1  IDiag  1:
 E= -1229.57596430074     Delta-E=       -0.000000000277 Rises=F Damp=F
 DIIS: error= 3.01D-07 at cycle  11 NSaved=  11.
 NSaved=11 IEnMin=11 EnMin= -1229.57596430074     IErMin=11 ErrMin= 3.01D-07
 ErrMax= 3.01D-07  0.00D+00 EMaxC= 1.00D-01 BMatC= 4.91D-11 BMatP= 3.91D-10
 IDIUse=1 WtCom= 1.00D+00 WtEn= 0.00D+00
 Coeff-Com: -0.797D-05 0.124D-04-0.496D-05-0.224D-04-0.271D-03-0.563D-03
 Coeff-Com: -0.573D-02-0.440D-02 0.548D-01 0.306D+00 0.650D+00
 Coeff:     -0.797D-05 0.124D-04-0.496D-05-0.224D-04-0.271D-03-0.563D-03
 Coeff:     -0.573D-02-0.440D-02 0.548D-01 0.306D+00 0.650D+00
 Gap=     0.135 Goal=   None    Shift=    0.000
 RMSDP=5.95D-08 MaxDP=3.51D-06 DE=-2.77D-10 OVMax= 4.45D-06

 Cycle  12  Pass 1  IDiag  1:
 E= -1229.57596430078     Delta-E=       -0.000000000035 Rises=F Damp=F
 DIIS: error= 4.69D-08 at cycle  12 NSaved=  12.
 NSaved=12 IEnMin=12 EnMin= -1229.57596430078     IErMin=12 ErrMin= 4.69D-08
 ErrMax= 4.69D-08  0.00D+00 EMaxC= 1.00D-01 BMatC= 1.43D-12 BMatP= 4.91D-11
 IDIUse=1 WtCom= 1.00D+00 WtEn= 0.00D+00
 Coeff-Com: -0.147D-05 0.185D-05 0.228D-04 0.259D-04 0.622D-04 0.897D-04
 Coeff-Com: -0.303D-02-0.614D-02-0.410D-02 0.343D-01 0.151D+00 0.828D+00
 Coeff:     -0.147D-05 0.185D-05 0.228D-04 0.259D-04 0.622D-04 0.897D-04
 Coeff:     -0.303D-02-0.614D-02-0.410D-02 0.343D-01 0.151D+00 0.828D+00
 Gap=     0.135 Goal=   None    Shift=    0.000
 RMSDP=1.87D-08 MaxDP=1.22D-06 DE=-3.50D-11 OVMax= 1.48D-06

 Cycle  13  Pass 1  IDiag  1:
 E= -1229.57596430082     Delta-E=       -0.000000000040 Rises=F Damp=F
 DIIS: error= 2.13D-08 at cycle  13 NSaved=  13.
 NSaved=13 IEnMin=13 EnMin= -1229.57596430082     IErMin=13 ErrMin= 2.13D-08
 ErrMax= 2.13D-08  0.00D+00 EMaxC= 1.00D-01 BMatC= 1.78D-13 BMatP= 1.43D-12
 IDIUse=1 WtCom= 1.00D+00 WtEn= 0.00D+00
 Coeff-Com:  0.502D-06-0.844D-06 0.781D-05 0.101D-04 0.415D-04 0.700D-04
 Coeff-Com: -0.544D-03-0.164D-02-0.489D-02-0.108D-01 0.114D-02 0.293D+00
 Coeff-Com:  0.724D+00
 Coeff:      0.502D-06-0.844D-06 0.781D-05 0.101D-04 0.415D-04 0.700D-04
 Coeff:     -0.544D-03-0.164D-02-0.489D-02-0.108D-01 0.114D-02 0.293D+00
 Coeff:      0.724D+00
 Gap=     0.135 Goal=   None    Shift=    0.000
 RMSDP=4.94D-09 MaxDP=2.94D-07 DE=-4.00D-11 OVMax= 3.81D-07

 Error on total polarization charges =  0.01933
 SCF Done:  E(RB3LYP) =  -1229.57596430     A.U. after   13 cycles
            NFock= 13  Conv=0.49D-08     -V/T= 2.0698
 KE= 1.149328510800D+03 PE=-4.013233212845D+03 EE= 1.070652026407D+03
 SMD-CDS (non-electrostatic) energy       (kcal/mol) =       5.40
 (included in total energy above)
 Leave Link  502 at Wed Dec 23 10:10:56 2020, MaxMem=  4026531840 cpu:       437.9
 (Enter /home/scicons/Gaussian09D/Gaussian09.D01/l801.exe)
 DoSCS=F DFT=T ScalE2(SS,OS)=  1.000000  1.000000
 Range of M.O.s used for correlation:     1   255
 NBasis=   255 NAE=    41 NBE=    41 NFC=     0 NFV=     0
 NROrb=    255 NOA=    41 NOB=    41 NVA=   214 NVB=   214
 Leave Link  801 at Wed Dec 23 10:10:57 2020, MaxMem=  4026531840 cpu:         0.9
 (Enter /home/scicons/Gaussian09D/Gaussian09.D01/l1101.exe)
 Using compressed storage, NAtomX=    14.
 Will process     15 centers per pass.
   1 Symmetry operations used in ECPInt.
 ECPInt:  NShTT=    5565 NPrTT=   17197 LenC2=    5429 LenP2D=   13036.
 LDataN:  DoStor=T MaxTD1= 9 Len=  602
 R6Disp: Adding Grimme-D3(BJ) dispersion energy 1st derivatives to the gradient.
 Leave Link 1101 at Wed Dec 23 10:11:00 2020, MaxMem=  4026531840 cpu:        76.2
 (Enter /home/scicons/Gaussian09D/Gaussian09.D01/l1102.exe)
 Symmetrizing basis deriv contribution to polar:
 IMax=3 JMax=2 DiffMx= 0.00D+00
 Leave Link 1102 at Wed Dec 23 10:11:00 2020, MaxMem=  4026531840 cpu:         0.9
 (Enter /home/scicons/Gaussian09D/Gaussian09.D01/l1110.exe)
 Forming Gx(P) for the SCF density, NAtomX=    14.
 Integral derivatives from FoFJK, PRISM(SPDF).
 Do as many integral derivatives as possible in FoFJK.
 G2DrvN: MDV=    4026531624.
 G2DrvN: will do    15 centers at a time, making    1 passes.
 Calling FoFCou, ICntrl=  3107 FMM=F I1Cent=   0 AccDes= 0.00D+00.
 FoFJK:  IHMeth= 1 ICntrl=    3107 DoSepK=F KAlg= 0 I1Cent=   0 FoldK=F
 IRaf=         0 NMat=   1 IRICut=       1 DoRegI=T DoRafI=F ISym2E= 0.
 FoFCou: FMM=F IPFlag=           0 FMFlag=      100000 FMFlg1=           0
         NFxFlg=           0 DoJE=F BraDBF=F KetDBF=F FulRan=T
         wScrn=  0.000000 ICntrl=    3107 IOpCl=  0 I1Cent=           0 NGrid=           0
         NMat0=    1 NMatS0=      1 NMatT0=    0 NMatD0=    1 NMtDS0=    0 NMtDT0=    0
 Symmetry not used in FoFCou.
 Defaulting to unpruned grid for atomic number  78.
 Defaulting to unpruned grid for atomic number  78.
 Defaulting to unpruned grid for atomic number  78.
 Defaulting to unpruned grid for atomic number  78.
 Defaulting to unpruned grid for atomic number  78.
 Defaulting to unpruned grid for atomic number  78.
 Defaulting to unpruned grid for atomic number  78.
 Defaulting to unpruned grid for atomic number  78.
 Defaulting to unpruned grid for atomic number  78.
 Defaulting to unpruned grid for atomic number  78.
 Defaulting to unpruned grid for atomic number  78.
 Defaulting to unpruned grid for atomic number  78.
 Defaulting to unpruned grid for atomic number  78.
 Defaulting to unpruned grid for atomic number  78.
 Defaulting to unpruned grid for atomic number  78.
 Defaulting to unpruned grid for atomic number  78.
 Defaulting to unpruned grid for atomic number  78.
 Defaulting to unpruned grid for atomic number  78.
 Defaulting to unpruned grid for atomic number  78.
 Defaulting to unpruned grid for atomic number  78.
 Defaulting to unpruned grid for atomic number  78.
 Defaulting to unpruned grid for atomic number  78.
 Defaulting to unpruned grid for atomic number  78.
 Defaulting to unpruned grid for atomic number  78.
 NEqPCM:  Using equilibrium solvation (IEInf=0, Eps=  78.3553, EpsInf=   1.7778)
 G2PCM: DoFxE=T DoFxN=T DoGrad=T DoDP/DQ/DG/TGxP=FFFF NFrqRd=   0 IEInf=0 SqF1=F DoCFld=F IF1Alg=4.
 GePol: Maximum number of non-zero 1st derivatives   =     368
 End of G2Drv F.D. properties file   721 does not exist.
 End of G2Drv F.D. properties file   722 does not exist.
 End of G2Drv F.D. properties file   788 does not exist.
 Leave Link 1110 at Wed Dec 23 10:11:29 2020, MaxMem=  4026531840 cpu:       681.8
 (Enter /home/scicons/Gaussian09D/Gaussian09.D01/l1002.exe)
 Minotr:  Closed shell wavefunction.
          IDoAtm=11111111111111
 NEqPCM:  Using equilibrium solvation (IEInf=0, Eps=  78.3553, EpsInf=   1.7778)
          Direct CPHF calculation.
          Differentiating once with respect to electric field.
                with respect to dipole field.
          Differentiating once with respect to nuclear coordinates.
          Requested convergence is 1.0D-08 RMS, and 1.0D-07 maximum.
          Secondary convergence is 1.0D-12 RMS, and 1.0D-12 maximum.
          NewPWx=T KeepS1=F KeepF1=F KeepIn=T MapXYZ=F SortEE=F KeepMc=T.
          MDV=    4026531441 using IRadAn=       2.
 Defaulting to unpruned grid for atomic number  78.
 Generate precomputed XC quadrature information.
 Keep R1 ints in memory in canonical form, NReq=544526104.
 FoFCou: FMM=F IPFlag=           0 FMFlag=           0 FMFlg1=           0
         NFxFlg=           0 DoJE=F BraDBF=F KetDBF=F FulRan=T
         wScrn=  0.000000 ICntrl=     600 IOpCl=  0 I1Cent=           0 NGrid=           0
         NMat0=    1 NMatS0=  32640 NMatT0=    0 NMatD0=    1 NMtDS0=    0 NMtDT0=    0
 Symmetry not used in FoFCou.
          Solving linear equations simultaneously, MaxMat=       0.
 Defaulting to unpruned grid for atomic number  78.
 Defaulting to unpruned grid for atomic number  78.
 Defaulting to unpruned grid for atomic number  78.
 Defaulting to unpruned grid for atomic number  78.
 Defaulting to unpruned grid for atomic number  78.
 Defaulting to unpruned grid for atomic number  78.
 Defaulting to unpruned grid for atomic number  78.
 Defaulting to unpruned grid for atomic number  78.
 Defaulting to unpruned grid for atomic number  78.
 Defaulting to unpruned grid for atomic number  78.
 Defaulting to unpruned grid for atomic number  78.
 Defaulting to unpruned grid for atomic number  78.
 Defaulting to unpruned grid for atomic number  78.
 Defaulting to unpruned grid for atomic number  78.
 Defaulting to unpruned grid for atomic number  78.
 Defaulting to unpruned grid for atomic number  78.
 Defaulting to unpruned grid for atomic number  78.
 Defaulting to unpruned grid for atomic number  78.
 Defaulting to unpruned grid for atomic number  78.
 Defaulting to unpruned grid for atomic number  78.
 Defaulting to unpruned grid for atomic number  78.
 Defaulting to unpruned grid for atomic number  78.
 Defaulting to unpruned grid for atomic number  78.
 Defaulting to unpruned grid for atomic number  78.
          There are    45 degrees of freedom in the 1st order CPHF.  IDoFFX=6 NUNeed=     3.
     42 vectors produced by pass  0 Test12= 1.95D-14 2.22D-09 XBig12= 9.40D+01 5.14D+00.
 AX will form    42 AO Fock derivatives at one time.
     42 vectors produced by pass  1 Test12= 1.95D-14 2.22D-09 XBig12= 1.25D+01 6.06D-01.
     42 vectors produced by pass  2 Test12= 1.95D-14 2.22D-09 XBig12= 3.31D-01 8.96D-02.
     42 vectors produced by pass  3 Test12= 1.95D-14 2.22D-09 XBig12= 2.00D-03 9.85D-03.
     42 vectors produced by pass  4 Test12= 1.95D-14 2.22D-09 XBig12= 1.33D-05 5.32D-04.
     42 vectors produced by pass  5 Test12= 1.95D-14 2.22D-09 XBig12= 8.21D-08 5.85D-05.
     16 vectors produced by pass  6 Test12= 1.95D-14 2.22D-09 XBig12= 2.32D-10 2.05D-06.
      3 vectors produced by pass  7 Test12= 1.95D-14 2.22D-09 XBig12= 3.35D-13 6.10D-08.
      1 vectors produced by pass  8 Test12= 1.95D-14 2.22D-09 XBig12= 5.83D-16 2.65D-09.
 InvSVY:  IOpt=1 It=  1 EMax= 8.88D-15
 Solved reduced A of dimension   272 with    45 vectors.
 FullF1:  Do perturbations    1 to     3.
 Isotropic polarizability for W=    0.000000      119.47 Bohr**3.
 End of Minotr F.D. properties file   721 does not exist.
 End of Minotr F.D. properties file   722 does not exist.
 End of Minotr F.D. properties file   788 does not exist.
 Leave Link 1002 at Wed Dec 23 10:12:32 2020, MaxMem=  4026531840 cpu:      1450.6
 (Enter /home/scicons/Gaussian09D/Gaussian09.D01/l601.exe)
 Copying SCF densities to generalized density rwf, IOpCl= 0 IROHF=0.

 **********************************************************************

            Population analysis using the SCF density.

 **********************************************************************

 Orbital symmetries:
       Occupied  (A) (A) (A) (A) (A) (A) (A) (A) (A) (A) (A) (A)
                 (A) (A) (A) (A) (A) (A) (A) (A) (A) (A) (A) (A)
                 (A) (A) (A) (A) (A) (A) (A) (A) (A) (A) (A) (A)
                 (A) (A) (A) (A) (A)
       Virtual   (A) (A) (A) (A) (A) (A) (A) (A) (A) (A) (A) (A)
                 (A) (A) (A) (A) (A) (A) (A) (A) (A) (A) (A) (A)
                 (A) (A) (A) (A) (A) (A) (A) (A) (A) (A) (A) (A)
                 (A) (A) (A) (A) (A) (A) (A) (A) (A) (A) (A) (A)
                 (A) (A) (A) (A) (A) (A) (A) (A) (A) (A) (A) (A)
                 (A) (A) (A) (A) (A) (A) (A) (A) (A) (A) (A) (A)
                 (A) (A) (A) (A) (A) (A) (A) (A) (A) (A) (A) (A)
                 (A) (A) (A) (A) (A) (A) (A) (A) (A) (A) (A) (A)
                 (A) (A) (A) (A) (A) (A) (A) (A) (A) (A) (A) (A)
                 (A) (A) (A) (A) (A) (A) (A) (A) (A) (A) (A) (A)
                 (A) (A) (A) (A) (A) (A) (A) (A) (A) (A) (A) (A)
                 (A) (A) (A) (A) (A) (A) (A) (A) (A) (A) (A) (A)
                 (A) (A) (A) (A) (A) (A) (A) (A) (A) (A) (A) (A)
                 (A) (A) (A) (A) (A) (A) (A) (A) (A) (A) (A) (A)
                 (A) (A) (A) (A) (A) (A) (A) (A) (A) (A) (A) (A)
                 (A) (A) (A) (A) (A) (A) (A) (A) (A) (A) (A) (A)
                 (A) (A) (A) (A) (A) (A) (A) (A) (A) (A) (A) (A)
                 (A) (A) (A) (A) (A) (A) (A) (A) (A) (A)
 The electronic state is 1-A.
 Alpha  occ. eigenvalues -- -101.42720-101.42203 -19.18955 -14.35693 -14.33929
 Alpha  occ. eigenvalues --   -9.36034  -9.35521  -7.11809  -7.11545  -7.11482
 Alpha  occ. eigenvalues --   -7.11303  -7.11013  -7.10977  -3.90249  -2.17318
 Alpha  occ. eigenvalues --   -2.13919  -2.12900  -1.07847  -0.91819  -0.90338
 Alpha  occ. eigenvalues --   -0.72952  -0.72190  -0.60056  -0.53194  -0.52723
 Alpha  occ. eigenvalues --   -0.51441  -0.51036  -0.50490  -0.42718  -0.41292
 Alpha  occ. eigenvalues --   -0.38392  -0.34127  -0.32597  -0.28433  -0.28008
 Alpha  occ. eigenvalues --   -0.27664  -0.25777  -0.23305  -0.20813  -0.15805
 Alpha  occ. eigenvalues --   -0.13959
 Alpha virt. eigenvalues --   -0.00416   0.00577   0.04670   0.06600   0.08209
 Alpha virt. eigenvalues --    0.09920   0.11387   0.12640   0.13649   0.15237
 Alpha virt. eigenvalues --    0.15959   0.17885   0.20191   0.22299   0.26041
 Alpha virt. eigenvalues --    0.26976   0.29314   0.30259   0.30784   0.32228
 Alpha virt. eigenvalues --    0.33028   0.35237   0.35857   0.36823   0.38228
 Alpha virt. eigenvalues --    0.39041   0.40333   0.41586   0.42069   0.42826
 Alpha virt. eigenvalues --    0.43223   0.45846   0.47318   0.48057   0.49856
 Alpha virt. eigenvalues --    0.50003   0.50653   0.51970   0.52823   0.53908
 Alpha virt. eigenvalues --    0.54735   0.54905   0.56098   0.57119   0.58194
 Alpha virt. eigenvalues --    0.61213   0.63186   0.64557   0.67214   0.69289
 Alpha virt. eigenvalues --    0.70780   0.72147   0.75264   0.76346   0.80475
 Alpha virt. eigenvalues --    0.82274   0.93308   0.96539   0.99059   0.99320
 Alpha virt. eigenvalues --    1.03171   1.07011   1.12757   1.17257   1.20164
 Alpha virt. eigenvalues --    1.22152   1.22802   1.23693   1.25834   1.26901
 Alpha virt. eigenvalues --    1.33253   1.34683   1.43615   1.45851   1.46768
 Alpha virt. eigenvalues --    1.47735   1.48089   1.49305   1.50754   1.53471
 Alpha virt. eigenvalues --    1.56857   1.57740   1.57988   1.59279   1.61340
 Alpha virt. eigenvalues --    1.65793   1.69375   1.71557   1.75586   1.76343
 Alpha virt. eigenvalues --    1.79379   1.80545   1.81119   1.82407   1.84077
 Alpha virt. eigenvalues --    1.85261   1.86026   1.87371   1.91409   1.92049
 Alpha virt. eigenvalues --    1.93612   1.93876   1.95630   1.98195   2.00427
 Alpha virt. eigenvalues --    2.03026   2.10954   2.12509   2.13277   2.14160
 Alpha virt. eigenvalues --    2.15500   2.15543   2.16235   2.16448   2.16812
 Alpha virt. eigenvalues --    2.17308   2.17929   2.19560   2.20610   2.21833
 Alpha virt. eigenvalues --    2.23210   2.25594   2.26483   2.29067   2.30673
 Alpha virt. eigenvalues --    2.31648   2.31685   2.34321   2.35445   2.37492
 Alpha virt. eigenvalues --    2.37742   2.38978   2.41110   2.45269   2.48008
 Alpha virt. eigenvalues --    2.48855   2.50504   2.51881   2.52332   2.55292
 Alpha virt. eigenvalues --    2.56371   2.58025   2.62705   2.63710   2.66637
 Alpha virt. eigenvalues --    2.68602   2.70287   2.74389   2.80903   2.94579
 Alpha virt. eigenvalues --    3.01329   3.02185   3.06548   3.18318   3.20583
 Alpha virt. eigenvalues --    3.22384   3.23032   3.25500   3.27394   3.40299
 Alpha virt. eigenvalues --    3.66186   3.94428   4.15838   4.19994   4.28524
 Alpha virt. eigenvalues --    4.30932   4.33030   4.38122   4.41247   4.42283
 Alpha virt. eigenvalues --    4.63971   4.64321   4.68781   4.70685   4.83309
 Alpha virt. eigenvalues --    4.85291   4.88844   4.91754   5.01178   5.05251
 Alpha virt. eigenvalues --    5.10889   5.23444   5.33060   5.33472   5.35530
 Alpha virt. eigenvalues --    5.37785   5.38775   5.42047   5.47205   5.79434
 Alpha virt. eigenvalues --    5.83863   5.95343   6.22573   6.39976   6.43882
 Alpha virt. eigenvalues --    6.64025   6.92589   6.97783  10.78084  10.79332
 Alpha virt. eigenvalues --   10.81513  10.82936  10.94537  10.97500  24.73746
 Alpha virt. eigenvalues --   25.01095  31.25493  31.56054  31.67862  32.20141
 Alpha virt. eigenvalues --   32.37701  43.41673  52.11808 282.39476
          Condensed to atoms (all electrons):
               1          2          3          4          5          6
     1  Pt  17.758086   0.021777  -0.002079   0.102349  -0.039117  -0.033303
     2  Cl   0.021777  17.839941  -0.033600  -0.023422   0.001239  -0.002334
     3  Cl  -0.002079  -0.033600  17.844323  -0.026199   0.001189   0.002110
     4  N    0.102349  -0.023422  -0.026199   6.295032   0.367672   0.368268
     5  H   -0.039117   0.001239   0.001189   0.367672   0.403601  -0.019638
     6  H   -0.033303  -0.002334   0.002110   0.368268  -0.019638   0.399239
     7  O    0.061630  -0.021934  -0.025807  -0.008828   0.000056   0.000380
     8  H   -0.036269  -0.000815  -0.001139   0.000322  -0.000152  -0.000024
     9  H   -0.030894  -0.002274   0.016574   0.000691  -0.000097   0.000069
    10  N   -0.089447  -0.048608  -0.046038  -0.006079  -0.004851  -0.004744
    11  H   -0.049754  -0.003413   0.001253   0.001583   0.000128   0.004027
    12  H   -0.051373   0.001035  -0.003091   0.002463   0.004597   0.000073
    13  H   -0.033350   0.000148  -0.000283   0.000644  -0.000162  -0.000146
    14  H   -0.024476  -0.001462   0.000665   0.364056  -0.016761  -0.017508
               7          8          9         10         11         12
     1  Pt   0.061630  -0.036269  -0.030894  -0.089447  -0.049754  -0.051373
     2  Cl  -0.021934  -0.000815  -0.002274  -0.048608  -0.003413   0.001035
     3  Cl  -0.025807  -0.001139   0.016574  -0.046038   0.001253  -0.003091
     4  N   -0.008828   0.000322   0.000691  -0.006079   0.001583   0.002463
     5  H    0.000056  -0.000152  -0.000097  -0.004851   0.000128   0.004597
     6  H    0.000380  -0.000024   0.000069  -0.004744   0.004027   0.000073
     7  O    7.855937   0.315893   0.310885  -0.008458   0.000495   0.000282
     8  H    0.315893   0.326524  -0.013740  -0.002544  -0.000528  -0.000409
     9  H    0.310885  -0.013740   0.319970   0.000753   0.000003   0.000118
    10  N   -0.008458  -0.002544   0.000753   6.783577   0.366299   0.366301
    11  H    0.000495  -0.000528   0.000003   0.366299   0.418776  -0.023661
    12  H    0.000282  -0.000409   0.000118   0.366301  -0.023661   0.419004
    13  H   -0.000091   0.009974  -0.000911   0.357228  -0.015179  -0.014398
    14  H    0.000317   0.000058  -0.000159   0.002795  -0.000187  -0.000324
              13         14
     1  Pt  -0.033350  -0.024476
     2  Cl   0.000148  -0.001462
     3  Cl  -0.000283   0.000665
     4  N    0.000644   0.364056
     5  H   -0.000162  -0.016761
     6  H   -0.000146  -0.017508
     7  O   -0.000091   0.000317
     8  H    0.009974   0.000058
     9  H   -0.000911  -0.000159
    10  N    0.357228   0.002795
    11  H   -0.015179  -0.000187
    12  H   -0.014398  -0.000324
    13  H    0.412429   0.000095
    14  H    0.000095   0.390698
 Mulliken charges:
               1
     1  Pt   0.446221
     2  Cl  -0.726277
     3  Cl  -0.727876
     4  N   -0.438553
     5  H    0.302296
     6  H    0.303530
     7  O   -0.480756
     8  H    0.402848
     9  H    0.399012
    10  N   -0.666183
    11  H    0.300159
    12  H    0.299384
    13  H    0.284002
    14  H    0.302193
 Sum of Mulliken charges =   0.00000
 Mulliken charges with hydrogens summed into heavy atoms:
               1
     1  Pt   0.446221
     2  Cl  -0.726277
     3  Cl  -0.727876
     4  N    0.469466
     7  O    0.321104
    10  N    0.217362
 APT charges:
               1
     1  Pt   1.326300
     2  Cl  -0.967542
     3  Cl  -0.989679
     4  N   -0.297176
     5  H    0.244132
     6  H    0.246182
     7  O   -0.597100
     8  H    0.385552
     9  H    0.422293
    10  N   -0.677285
    11  H    0.221479
    12  H    0.220275
    13  H    0.201377
    14  H    0.261194
 Sum of APT charges =   0.00000
 APT charges with hydrogens summed into heavy atoms:
               1
     1  Pt   1.326300
     2  Cl  -0.967542
     3  Cl  -0.989679
     4  N    0.454331
     7  O    0.210745
    10  N   -0.034154
 Electronic spatial extent (au):  <R**2>=           1255.2591
 Charge=              0.0000 electrons
 Dipole moment (field-independent basis, Debye):
    X=              1.9571    Y=             12.6427    Z=              2.4221  Tot=             13.0205
 Quadrupole moment (field-independent basis, Debye-Ang):
   XX=            -95.9512   YY=            -62.6922   ZZ=            -45.0262
   XY=              0.2442   XZ=             -6.5970   YZ=             -1.7625
 Traceless Quadrupole moment (field-independent basis, Debye-Ang):
   XX=            -28.0613   YY=              5.1976   ZZ=             22.8637
   XY=              0.2442   XZ=             -6.5970   YZ=             -1.7625
 Octapole moment (field-independent basis, Debye-Ang**2):
  XXX=              1.5749  YYY=             73.2364  ZZZ=              7.2264  XYY=              1.5422
  XXY=             43.6645  XXZ=              5.6865  XZZ=             11.5559  YZZ=             19.6859
  YYZ=             -0.7237  XYZ=              0.1736
 Hexadecapole moment (field-independent basis, Debye-Ang**3):
 XXXX=           -897.0995 YYYY=           -417.8791 ZZZZ=           -272.8964 XXXY=             -2.1301
 XXXZ=            -12.4994 YYYX=              1.1630 YYYZ=            -11.7570 ZZZX=            -34.9498
 ZZZY=            -10.3253 XXYY=           -228.0786 XXZZ=           -184.3958 YYZZ=           -110.1484
 XXYZ=              3.1798 YYXZ=             -6.7680 ZZXY=              2.5007
 N-N= 5.636767113369D+02 E-N=-4.013233210783D+03  KE= 1.149328510800D+03
  Exact polarizability: 131.181  -0.096 118.872  -0.108   0.393 108.356
 Approx polarizability: 145.441  -0.289 127.245   0.650   0.214 119.167
 No NMR shielding tensors so no spin-rotation constants.
 Leave Link  601 at Wed Dec 23 10:12:33 2020, MaxMem=  4026531840 cpu:         8.2
 (Enter /home/scicons/Gaussian09D/Gaussian09.D01/l701.exe)
 Compute integral second derivatives.
 ... and contract with generalized density number  0.
 R6Disp: Adding Grimme-D3(BJ) dispersion energy 2nd derivatives to the Hessian.
   1 Symmetry operations used in ECPInt.
 ECPInt:  NShTT=    5565 NPrTT=   17197 LenC2=    5429 LenP2D=   13036.
 LDataN:  DoStor=T MaxTD1=10 Len=  848
 D2PCM: PCM CHGder 2nd derivatives, FixD1E=F FixD2E=F DoIter=F DoCFld=F I1PDM=0
 GePol: Maximum number of non-zero 2nd derivatives   =     368
 Leave Link  701 at Wed Dec 23 10:12:58 2020, MaxMem=  4026531840 cpu:       599.6
 (Enter /home/scicons/Gaussian09D/Gaussian09.D01/l702.exe)
 L702 exits ... SP integral derivatives will be done elsewhere.
 Leave Link  702 at Wed Dec 23 10:12:59 2020, MaxMem=  4026531840 cpu:         0.4
 (Enter /home/scicons/Gaussian09D/Gaussian09.D01/l703.exe)
 Compute integral second derivatives, UseDBF=F ICtDFT=           0.
 Integral derivatives from FoFJK, PRISM(SPDF).
 Calling FoFJK, ICntrl=    100127 FMM=F ISym2X=0 I1Cent= 0 IOpClX= 0 NMat=1 NMatS=1 NMatT=0.
 FoFJK:  IHMeth= 1 ICntrl=  100127 DoSepK=F KAlg= 0 I1Cent=   0 FoldK=F
 IRaf=         0 NMat=   1 IRICut=       1 DoRegI=T DoRafI=F ISym2E= 0.
 FoFCou: FMM=F IPFlag=           0 FMFlag=      100000 FMFlg1=         800
         NFxFlg=           0 DoJE=F BraDBF=F KetDBF=F FulRan=T
         wScrn=  0.000000 ICntrl=  100127 IOpCl=  0 I1Cent=           0 NGrid=           0
         NMat0=    1 NMatS0=      1 NMatT0=    0 NMatD0=    1 NMtDS0=    0 NMtDT0=    0
 Symmetry not used in FoFCou.
 Defaulting to unpruned grid for atomic number  78.
 Defaulting to unpruned grid for atomic number  78.
 Defaulting to unpruned grid for atomic number  78.
 Defaulting to unpruned grid for atomic number  78.
 Defaulting to unpruned grid for atomic number  78.
 Defaulting to unpruned grid for atomic number  78.
 Defaulting to unpruned grid for atomic number  78.
 Defaulting to unpruned grid for atomic number  78.
 Defaulting to unpruned grid for atomic number  78.
 Defaulting to unpruned grid for atomic number  78.
 Defaulting to unpruned grid for atomic number  78.
 Defaulting to unpruned grid for atomic number  78.
 Defaulting to unpruned grid for atomic number  78.
 Defaulting to unpruned grid for atomic number  78.
 Defaulting to unpruned grid for atomic number  78.
 Defaulting to unpruned grid for atomic number  78.
 Defaulting to unpruned grid for atomic number  78.
 Defaulting to unpruned grid for atomic number  78.
 Defaulting to unpruned grid for atomic number  78.
 Defaulting to unpruned grid for atomic number  78.
 Defaulting to unpruned grid for atomic number  78.
 Defaulting to unpruned grid for atomic number  78.
 Defaulting to unpruned grid for atomic number  78.
 Defaulting to unpruned grid for atomic number  78.
 Leave Link  703 at Wed Dec 23 10:13:34 2020, MaxMem=  4026531840 cpu:       851.2
 (Enter /home/scicons/Gaussian09D/Gaussian09.D01/l716.exe)
 Dipole        = 7.69971575D-01 4.97401783D+00 9.52913618D-01
 Polarizability= 1.31181465D+02-9.58424437D-02 1.18871538D+02
                -1.07623477D-01 3.93181584D-01 1.08355504D+02
 ***** Axes restored to original set *****
 -------------------------------------------------------------------
 Center     Atomic                   Forces (Hartrees/Bohr)
 Number     Number              X              Y              Z
 -------------------------------------------------------------------
      1       78          -0.015605648   -0.001159521   -0.030538825
      2       17          -0.038278064   -0.059035911   -0.001160956
      3       17          -0.038250832    0.058443158    0.001252825
      4        7           0.002668732   -0.001001684    0.001791053
      5        1           0.005482508    0.010829373   -0.009427716
      6        1           0.005185387   -0.010936741   -0.009574796
      7        8           0.001352223   -0.013851861    0.038440769
      8        1           0.002024190    0.006564354    0.012018722
      9        1          -0.003793557    0.010200950    0.006855018
     10        7           0.053120371   -0.000314909   -0.002786754
     11        1           0.011518799   -0.009376164   -0.003634903
     12        1           0.011689829    0.008903996   -0.004520584
     13        1           0.014466084    0.000670963    0.008943353
     14        1          -0.011580023    0.000064000   -0.007657204
 -------------------------------------------------------------------
 Cartesian Forces:  Max     0.059035911 RMS     0.020298984
 FormGI is forming the generalized inverse of G from B-inverse, IUseBI=4.
 Leave Link  716 at Wed Dec 23 10:13:34 2020, MaxMem=  4026531840 cpu:         1.0
 (Enter /home/scicons/Gaussian09D/Gaussian09.D01/l103.exe)

 GradGradGradGradGradGradGradGradGradGradGradGradGradGradGradGradGradGrad
 Berny optimization.
 Red2BG is reusing G-inverse.
 Internal  Forces:  Max     0.090815812 RMS     0.018341936
 Search for a saddle point.
 Step number   1 out of a maximum of   82
 All quantities printed in internal units (Hartrees-Bohrs-Radians)
 Swapping is turned off.
 Second derivative matrix not updated -- analytic derivatives used.
 ITU=  0
     Eigenvalues ---   -0.03400  -0.02026  -0.00178  -0.00045  -0.00029
     Eigenvalues ---    0.01126   0.02791   0.03031   0.03117   0.03491
     Eigenvalues ---    0.04175   0.05467   0.06904   0.07491   0.08132
     Eigenvalues ---    0.08478   0.09398   0.09609   0.10029   0.10707
     Eigenvalues ---    0.11490   0.14015   0.15297   0.16495   0.19164
     Eigenvalues ---    0.21639   0.25269   0.29145   0.48264   0.48637
     Eigenvalues ---    0.48689   0.48805   0.49044   0.49273   0.53102
     Eigenvalues ---    0.53322
 Eigenvectors required to have negative eigenvalues:
                          A7        A4        D20       D21       D9
   1                    0.43597  -0.40418   0.29978   0.28357  -0.28175
                          D8        D7        D4        D5        D6
   1                   -0.27951  -0.27743   0.15854   0.15646   0.15422
 Eigenvalue     2 is  -2.03D-02 should be greater than     0.000000 Eigenvector:
                          A1        A4        D1        D2        D17
   1                   -0.48855   0.27099  -0.25308  -0.24931   0.24846
                          D3        D16       D18       D6        D19
   1                   -0.24775   0.24758  -0.24097   0.24080  -0.24009
 Eigenvalue     3 is  -1.78D-03 should be greater than     0.000000 Eigenvector:
                          D16       D18       D20       D17       D19
   1                   -0.28850  -0.28473  -0.27202  -0.26014  -0.25638
                          D21       D2        D1        D3        D5
   1                   -0.24367   0.17113   0.16953   0.16928   0.16737
 Eigenvalue     4 is  -4.46D-04 should be greater than     0.000000 Eigenvector:
                          D33       D30       D27       D24       D31
   1                    0.25612   0.24720   0.24441   0.24333   0.24031
                          D32       D28       D29       D25       D22
   1                    0.23781   0.23139   0.22890   0.22859   0.22752
 Eigenvalue     5 is  -2.91D-04 should be greater than     0.000000 Eigenvector:
                          D15       D13       D14       D12       D11
   1                    0.30555   0.30528   0.30349   0.30322   0.30321
                          D10       D9        D8        D7        D6
   1                    0.30114   0.18682   0.18595   0.18321   0.17701
 RFO step:  Lambda0=1.234139425D-05 Lambda=-7.21626127D-02.
 Linear search not attempted -- option 19 set.
 Maximum step size (   0.300) exceeded in Quadratic search.
    -- Step size scaled by   0.448
 Iteration  1 RMS(Cart)=  0.07228122 RMS(Int)=  0.00285207
 Iteration  2 RMS(Cart)=  0.00325910 RMS(Int)=  0.00013149
 Iteration  3 RMS(Cart)=  0.00000678 RMS(Int)=  0.00013137
 Iteration  4 RMS(Cart)=  0.00000000 RMS(Int)=  0.00013137
 ITry= 1 IFail=0 DXMaxC= 3.69D-01 DCOld= 1.00D+10 DXMaxT= 3.00D-01 DXLimC= 3.00D+00 Rises=F
 Variable       Old X    -DE/DX   Delta X   Delta X   Delta X     New X
                                 (Linear)    (Quad)   (Total)
    R1        4.30858   0.07027   0.00000   0.13520   0.13520   4.44378
    R2        4.30858   0.06973   0.00000   0.13349   0.13349   4.44207
    R3        3.76056   0.02482   0.00000   0.02502   0.02502   3.78558
    R4        3.68497   0.05735   0.00000   0.07044   0.07044   3.75540
    R5        3.76056   0.09082   0.00000   0.05663   0.05663   3.81718
    R6        1.88973   0.01454   0.00000   0.01207   0.01207   1.90180
    R7        1.88973   0.01455   0.00000   0.01179   0.01179   1.90152
    R8        1.88973   0.01351   0.00000   0.01145   0.01145   1.90118
    R9        1.81414   0.00817   0.00000   0.00544   0.00544   1.81957
   R10        1.81414   0.01095   0.00000   0.00918   0.00918   1.82332
   R11        1.88973   0.01329   0.00000   0.01116   0.01116   1.90089
   R12        1.88973   0.01328   0.00000   0.01116   0.01116   1.90088
   R13        1.88973   0.01324   0.00000   0.01166   0.01166   1.90139
    A1        2.09440  -0.00405   0.00000  -0.16241  -0.16242   1.93198
    A2        1.57080  -0.00017   0.00000  -0.00073  -0.00036   1.57044
    A3        1.57080  -0.00095   0.00000   0.00078   0.00022   1.57102
    A4        2.09440   0.00186   0.00000   0.08233   0.08231   2.17670
    A5        1.57080   0.00230   0.00000   0.00798   0.00805   1.57885
    A6        1.57080  -0.00377   0.00000  -0.01271  -0.01296   1.55783
    A7        2.09440   0.00219   0.00000   0.08008   0.08011   2.17451
    A8        1.57080  -0.00366   0.00000  -0.00720  -0.00697   1.56383
    A9        1.57080   0.00624   0.00000   0.01188   0.01140   1.58220
   A10        1.91063   0.00494   0.00000   0.01272   0.01266   1.92330
   A11        1.91063   0.00518   0.00000   0.01138   0.01132   1.92195
   A12        1.91063   0.00233   0.00000   0.00062   0.00062   1.91125
   A13        1.91063  -0.00462   0.00000  -0.00927  -0.00938   1.90125
   A14        1.91063  -0.00385   0.00000  -0.00855  -0.00855   1.90209
   A15        1.91063  -0.00398   0.00000  -0.00689  -0.00689   1.90374
   A16        1.91063   0.01362   0.00000   0.03167   0.03173   1.94236
   A17        1.91063   0.00198   0.00000  -0.01299  -0.01293   1.89771
   A18        1.91063  -0.00850   0.00000  -0.01207  -0.01195   1.89868
   A19        1.91063   0.00649   0.00000   0.01182   0.01173   1.92236
   A20        1.91063   0.00670   0.00000   0.01194   0.01187   1.92250
   A21        1.91063   0.01129   0.00000   0.01488   0.01479   1.92543
   A22        1.91063  -0.00663   0.00000  -0.01100  -0.01107   1.89956
   A23        1.91063  -0.00882   0.00000  -0.01172  -0.01183   1.89881
   A24        1.91063  -0.00902   0.00000  -0.01593  -0.01600   1.89463
   A25        3.14159  -0.00112   0.00000   0.00005  -0.00014   3.14146
   A26        3.14159   0.00234   0.00000   0.00543   0.00530   3.14689
    D1       -3.13003  -0.00227   0.00000  -0.03831  -0.03833   3.11483
    D2       -1.03564  -0.00173   0.00000  -0.03491  -0.03490  -1.07054
    D3        1.05876  -0.00201   0.00000  -0.03601  -0.03601   1.02275
    D4        1.05876   0.00179   0.00000   0.12410   0.12408   1.18284
    D5       -3.13003   0.00232   0.00000   0.12750   0.12751  -3.00253
    D6       -1.03564   0.00204   0.00000   0.12640   0.12640  -0.90924
    D7       -1.03564  -0.00040   0.00000   0.04402   0.04400  -0.99164
    D8        1.05876   0.00013   0.00000   0.04742   0.04742   1.10618
    D9       -3.13003  -0.00015   0.00000   0.04632   0.04631  -3.08372
   D10       -0.64564  -0.00024   0.00000  -0.03818  -0.03818  -0.68383
   D11        1.44875  -0.00105   0.00000  -0.04217  -0.04221   1.40655
   D12        1.44875   0.00108   0.00000  -0.03336  -0.03330   1.41545
   D13       -2.74004   0.00027   0.00000  -0.03735  -0.03733  -2.77736
   D14       -2.74004   0.00046   0.00000  -0.03446  -0.03443  -2.77447
   D15       -0.64564  -0.00036   0.00000  -0.03845  -0.03846  -0.68410
   D16        2.48439   0.00223   0.00000   0.00030   0.00031   2.48470
   D17       -1.70440   0.00137   0.00000  -0.00303  -0.00305  -1.70745
   D18       -1.70440  -0.00182   0.00000  -0.16211  -0.16208  -1.86648
   D19        0.39000  -0.00268   0.00000  -0.16544  -0.16544   0.22455
   D20        0.39000   0.00037   0.00000  -0.08203  -0.08205   0.30795
   D21        2.48439  -0.00049   0.00000  -0.08536  -0.08541   2.39898
   D22        0.46207  -0.00159   0.00000  -0.00414  -0.00439   0.45768
   D23        2.55647  -0.00163   0.00000  -0.00306  -0.00331   2.55316
   D24       -1.63232  -0.00166   0.00000  -0.00614  -0.00640  -1.63872
   D25       -2.67952   0.00017   0.00000  -0.00420  -0.00410  -2.68362
   D26       -0.58513   0.00013   0.00000  -0.00311  -0.00302  -0.58815
   D27        1.50927   0.00010   0.00000  -0.00619  -0.00611   1.50316
   D28       -1.10872   0.00072   0.00000   0.00086   0.00087  -1.10785
   D29        0.98567   0.00068   0.00000   0.00194   0.00195   0.98762
   D30        3.08007   0.00064   0.00000  -0.00114  -0.00113   3.07893
   D31        2.03287   0.00092   0.00000   0.00362   0.00378   2.03665
   D32       -2.15592   0.00088   0.00000   0.00470   0.00486  -2.15106
   D33       -0.06153   0.00085   0.00000   0.00162   0.00177  -0.05975
         Item               Value     Threshold  Converged?
 Maximum Force            0.090816     0.000450     NO 
 RMS     Force            0.018342     0.000300     NO 
 Maximum Displacement     0.368864     0.001800     NO 
 RMS     Displacement     0.073186     0.001200     NO 
 Predicted change in Energy=-2.961403D-02
 Lowest energy point so far.  Saving SCF results.
 GradGradGradGradGradGradGradGradGradGradGradGradGradGradGradGradGradGrad

 Leave Link  103 at Wed Dec 23 10:13:34 2020, MaxMem=  4026531840 cpu:         0.8
 (Enter /home/scicons/Gaussian09D/Gaussian09.D01/l202.exe)
                          Input orientation:                          
 ---------------------------------------------------------------------
 Center     Atomic      Atomic             Coordinates (Angstroms)
 Number     Number       Type             X           Y           Z
 ---------------------------------------------------------------------
      1         78           0       -2.374430   -0.226560   -0.001487
      2         17           0       -3.698098   -2.170181   -0.004917
      3         17           0       -3.724357    1.697767    0.011845
      4          7           0       -2.368290   -0.228078   -2.004718
      5          1           0       -1.856651    0.566270   -2.351205
      6          1           0       -1.937093   -1.069586   -2.348890
      7          8           0       -2.389380   -0.219350    1.985717
      8          1           0       -1.539286    0.060751    2.340707
      9          1           0       -3.069815    0.394208    2.288215
     10          7           0       -0.354544   -0.210325   -0.009384
     11          1           0       -0.003009   -1.052832   -0.431822
     12          1           0       -0.016394    0.580262   -0.531369
     13          1           0       -0.001971   -0.147668    0.930906
     14          1           0       -3.314393   -0.181095   -2.343598
 ---------------------------------------------------------------------
                    Distance matrix (angstroms):
                    1          2          3          4          5
     1  Pt   0.000000
     2  Cl   2.351547   0.000000
     3  Cl   2.350642   3.868074   0.000000
     4  N    2.003241   3.088586   3.100697   0.000000
     5  H    2.533347   4.047735   3.217549   1.006387   0.000000
     6  H    2.532244   3.131559   4.052854   1.006241   1.637834
     7  O    1.987273   3.079141   3.058378   3.990500   4.439582
     8  H    2.503174   3.890948   3.588586   4.433213   4.729725
     9  H    2.472175   3.497040   2.703619   4.394161   4.798499
    10  N    2.019967   3.875618   3.872584   2.834933   2.888521
    11  H    2.547852   3.883864   4.648771   2.957833   3.121139
    12  H    2.547954   4.625693   3.910612   2.890602   2.588154
    13  H    2.550321   4.315979   4.255169   3.771447   3.836899
    14  H    2.524100   3.094047   3.040774   1.006061   1.638177
                    6          7          8          9         10
     6  H    0.000000
     7  O    4.440302   0.000000
     8  H    4.840271   0.962877   0.000000
     9  H    4.992844   0.964858   1.567312   0.000000
    10  N    2.952301   2.849748   2.645755   3.607925   0.000000
    11  H    2.723254   3.497706   3.359632   4.347163   1.005906
    12  H    3.116803   3.550515   3.292098   4.160295   1.005903
    13  H    3.918123   2.611031   2.096262   3.398173   1.006170
    14  H    1.639023   4.427198   5.015197   4.673809   3.769631
                   11         12         13         14
    11  H    0.000000
    12  H    1.636180   0.000000
    13  H    1.635955   1.633505   0.000000
    14  H    3.921744   3.839353   4.657857   0.000000
 Stoichiometry    Cl2H8N2OPt
 Framework group  C1[X(Cl2H8N2OPt)]
 Deg. of freedom    36
 Full point group                 C1      NOp   1
 RotChk:  IX=0 Diff= 1.43D-01
 Largest Abelian subgroup         C1      NOp   1
 Largest concise Abelian subgroup C1      NOp   1
                         Standard orientation:                         
 ---------------------------------------------------------------------
 Center     Atomic      Atomic             Coordinates (Angstroms)
 Number     Number       Type             X           Y           Z
 ---------------------------------------------------------------------
      1         78           0       -0.006395    0.169739   -0.008317
      2         17           0       -1.938077   -1.168465   -0.095412
      3         17           0        1.922624   -1.164961    0.143270
      4          7           0       -0.140222    0.231628    1.989490
      5          1           0        0.626449    0.758904    2.372910
      6          1           0       -1.005175    0.665650    2.265175
      7          8           0        0.132107    0.099535   -1.989514
      8          1           0        0.429966    0.941580   -2.349200
      9          1           0        0.768344   -0.584243   -2.231589
     10          7           0       -0.002755    2.189127   -0.056516
     11          1           0       -0.873397    2.545692    0.299421
     12          1           0        0.749610    2.547842    0.506611
     13          1           0        0.119752    2.515868   -1.000238
     14          1           0       -0.110081   -0.704279    2.357359
 ---------------------------------------------------------------------
 Rotational constants (GHZ):      1.4906204      1.2239207      1.1085914
 Leave Link  202 at Wed Dec 23 10:13:35 2020, MaxMem=  4026531840 cpu:         0.2
 (Enter /home/scicons/Gaussian09D/Gaussian09.D01/l301.exe)
 Standard basis: def2TZVP (5D, 7F)
 Ernie: Thresh=  0.10000D-02 Tol=  0.10000D-05 Strict=F.
 There are   286 symmetry adapted cartesian basis functions of A   symmetry.
 There are   255 symmetry adapted basis functions of A   symmetry.
   255 basis functions,   430 primitive gaussians,   286 cartesian basis functions
    41 alpha electrons       41 beta electrons
       nuclear repulsion energy       552.7695467540 Hartrees.
 IExCor=  402 DFT=T Ex+Corr=B3LYP ExCW=0 ScaHFX=  0.200000
 ScaDFX=  0.800000  0.720000  1.000000  0.810000 ScalE2=  1.000000  1.000000
 IRadAn=      0 IRanWt=     -1 IRanGd=            0 ICorTp=0 IEmpDi=141
 NAtoms=   14 NActive=   14 NUniq=   14 SFac= 1.00D+00 NAtFMM=   60 NAOKFM=F Big=F
 Integral buffers will be    131072 words long.
 Raffenetti 2 integral format.
 Two-electron integral symmetry is turned on.
 R6Disp:  Grimme-D3(BJ) Dispersion energy=       -0.0293549147 Hartrees.
 Nuclear repulsion after empirical dispersion term =      552.7401918393 Hartrees.
 Force inversion solution in PCM.
 ------------------------------------------------------------------------------
 Polarizable Continuum Model (PCM)
 =================================
 Model                : PCM (using non-symmetric T matrix).
 Atomic radii         : SMD-Coulomb.
 Polarization charges : Total charges.
 Charge compensation  : None.
 Solution method      : Matrix inversion.
 Cavity type          : VdW (van der Waals Surface) (Alpha=1.000).
 Cavity algorithm     : GePol (No added spheres)
                        Default sphere list used, NSphG=   14.
                        Lebedev-Laikov grids with approx.  5.0 points / Ang**2.
                        Smoothing algorithm: Karplus/York (Gamma=1.0000).
                        Polarization charges: spherical gaussians, with
                                              point-specific exponents (IZeta= 3).
                        Self-potential: point-specific (ISelfS= 7).
                        Self-field    : sphere-specific E.n sum rule (ISelfD= 2).
 1st derivatives      : Analytical E(r).r(x)/FMM algorithm (CHGder, D1EAlg=3).
                        Cavity 1st derivative terms included.
 2nd derivatives      : Analytical E(r).r(xy)/FMM algorithm (CHGder, D2EAlg=3).
                        Cavity 2nd derivative terms included.
 Solvent              : Water, Eps=  78.355300 Eps(inf)=   1.777849
 ------------------------------------------------------------------------------
 Spheres list:
 ISph  on   Nord     Re0    Alpha      Xe            Ye            Ze
    1  Pt      1    1.7500  1.000     -0.006395      0.169739     -0.008317
[...]
 Frc consts  --      1.1174                 1.2084                 1.5901
 IR Inten    --     86.0364               157.1149               121.7924
  Atom  AN      X      Y      Z        X      Y      Z        X      Y      Z
     1  78     0.00   0.00   0.00     0.00   0.00   0.00     0.00   0.00   0.00
     2  17     0.00   0.00   0.00     0.00   0.00   0.00     0.00   0.00   0.00
     3  17     0.00   0.00   0.00     0.00   0.00   0.00     0.00   0.00   0.00
     4   7     0.00  -0.01  -0.01     0.01  -0.07  -0.09     0.00   0.00   0.00
     5   1     0.01   0.05   0.03     0.02   0.49   0.26    -0.03  -0.01  -0.01
     6   1    -0.02   0.03   0.04    -0.21   0.35   0.43    -0.01   0.04  -0.04
     7   8     0.00   0.00   0.00     0.00   0.00   0.00     0.00   0.06   0.00
     8   1     0.01   0.00   0.02     0.00   0.00   0.00    -0.42  -0.53   0.11
     9   1     0.00  -0.01  -0.01     0.00   0.00   0.00     0.39  -0.56  -0.11
    10   7     0.11   0.00  -0.01    -0.01   0.00   0.00     0.00  -0.01   0.00
    11   1    -0.53   0.23  -0.05     0.06  -0.03   0.00     0.05   0.01   0.07
    12   1    -0.51  -0.01   0.25     0.06   0.01  -0.03     0.01   0.13   0.01
    13   1    -0.54  -0.15  -0.06     0.04   0.02   0.00    -0.05   0.02  -0.06
    14   1     0.02   0.03   0.06     0.10   0.16   0.53     0.03   0.02   0.01
                     25                     26                     27
                      A                      A                      A
 Frequencies --   1599.6189              1613.8759              1616.0280
 Red. masses --      1.0527                 1.0597                 1.0568
 Frc consts  --      1.5871                 1.6262                 1.6260
 IR Inten    --     69.6768                83.3676                59.6310
  Atom  AN      X      Y      Z        X      Y      Z        X      Y      Z
     1  78     0.00   0.00   0.00     0.00   0.00   0.00     0.00   0.00   0.00
     2  17     0.00   0.00   0.00     0.00   0.00   0.00     0.00   0.00   0.00
     3  17     0.00   0.00   0.00     0.00   0.00   0.00     0.00   0.00   0.00
     4   7    -0.02   0.04  -0.04    -0.02  -0.01   0.01     0.04   0.02  -0.01
     5   1     0.55   0.06   0.23     0.16  -0.13   0.00    -0.35   0.25  -0.02
     6   1     0.06  -0.49   0.52    -0.07   0.15   0.04     0.14  -0.25  -0.12
     7   8     0.00   0.00   0.00     0.00  -0.01   0.00     0.00   0.00   0.00
     8   1    -0.03  -0.04   0.01     0.05   0.06   0.00    -0.02  -0.03   0.00
     9   1     0.03  -0.04  -0.01    -0.04   0.06   0.01     0.02  -0.03  -0.01
    10   7     0.00   0.00   0.00    -0.01  -0.03  -0.05     0.00   0.02  -0.04
    11   1     0.00   0.02   0.03     0.09   0.27   0.62    -0.10   0.20   0.25
    12   1     0.01   0.00  -0.01     0.23   0.40  -0.09     0.15  -0.17  -0.11
    13   1    -0.01  -0.02   0.02    -0.24  -0.24   0.17    -0.01  -0.28   0.38
    14   1    -0.23  -0.16  -0.20     0.23   0.14  -0.13    -0.43  -0.26   0.27
                     28                     29                     30
                      A                      A                      A
 Frequencies --   1625.3256              3411.7964              3449.7753
 Red. masses --      1.0569                 1.0318                 1.0276
 Frc consts  --      1.6451                 7.0766                 7.2055
 IR Inten    --     39.8793                27.4157                56.6766
  Atom  AN      X      Y      Z        X      Y      Z        X      Y      Z
     1  78     0.00   0.00   0.00     0.00   0.00   0.00     0.00   0.00   0.00
     2  17     0.00   0.00   0.00     0.00   0.00   0.00     0.00   0.00   0.00
     3  17     0.00   0.00   0.00     0.00   0.00   0.00     0.00   0.00   0.00
     4   7     0.03   0.01  -0.01     0.01  -0.04  -0.02     0.00   0.00   0.00
     5   1    -0.20   0.16  -0.01    -0.16  -0.23   0.37     0.00   0.00  -0.01
     6   1     0.09  -0.19  -0.07     0.43   0.13   0.07     0.01   0.01   0.00
     7   8     0.00  -0.01   0.00     0.00   0.00   0.00     0.00   0.00   0.00
     8   1     0.06   0.07   0.00     0.00   0.00   0.00     0.00   0.00   0.00
     9   1    -0.05   0.07   0.01     0.01   0.01  -0.01     0.00   0.00   0.00
    10   7     0.00  -0.05   0.02     0.00   0.00   0.00    -0.04   0.00   0.00
    11   1     0.23  -0.09   0.11     0.00   0.00   0.00     0.21   0.51  -0.26
    12   1    -0.07   0.59   0.12     0.00   0.00   0.01     0.22  -0.07   0.53
    13   1    -0.19   0.24  -0.46     0.00   0.00   0.00     0.12  -0.43  -0.30
    14   1    -0.28  -0.17   0.16    -0.44   0.61  -0.14     0.01  -0.01   0.00
                     31                     32                     33
                      A                      A                      A
 Frequencies --   3496.3410              3500.7025              3525.4677
 Red. masses --      1.0600                 1.0875                 1.0924
 Frc consts  --      7.6347                 7.8521                 7.9993
 IR Inten    --    333.3086               126.2756                75.9916
  Atom  AN      X      Y      Z        X      Y      Z        X      Y      Z
     1  78     0.00   0.00   0.00     0.00   0.00   0.00     0.00   0.00   0.00
     2  17     0.00   0.00   0.00     0.00   0.00   0.00     0.00   0.00   0.00
     3  17     0.00   0.00   0.00     0.00   0.00   0.00     0.00   0.00   0.00
     4   7     0.00   0.01   0.00     0.04  -0.04   0.05    -0.07  -0.04   0.03
     5   1    -0.02  -0.03   0.05     0.21   0.28  -0.48     0.21   0.31  -0.54
     6   1     0.04   0.01   0.01    -0.46  -0.16  -0.07     0.70   0.22   0.13
     7   8    -0.04  -0.04   0.02     0.00   0.00   0.00     0.00   0.00   0.00
     8   1    -0.11   0.07   0.04    -0.01   0.01   0.00     0.00   0.00   0.00
     9   1     0.74   0.55  -0.35     0.08   0.06  -0.04     0.00   0.00   0.00
    10   7     0.00   0.00   0.00     0.00   0.00   0.00     0.00   0.00   0.00
    11   1     0.00   0.00   0.00     0.00   0.01  -0.01    -0.01  -0.02   0.01
    12   1     0.00   0.00   0.00     0.00   0.00  -0.01     0.01   0.00   0.03
    13   1     0.00   0.00   0.00     0.00  -0.01  -0.01    -0.01   0.03   0.02
    14   1     0.04  -0.06   0.01    -0.36   0.50  -0.10     0.01  -0.04   0.01
                     34                     35                     36
                      A                      A                      A
 Frequencies --   3539.5524              3547.4639              3746.6258
 Red. masses --      1.0922                 1.0918                 1.0691
 Frc consts  --      8.0624                 8.0949                 8.8422
 IR Inten    --    107.9702                86.1986               238.2629
  Atom  AN      X      Y      Z        X      Y      Z        X      Y      Z
     1  78     0.00   0.00   0.00     0.00   0.00   0.00     0.00   0.00   0.00
     2  17     0.00   0.00   0.00     0.00   0.00   0.00     0.00   0.00   0.00
     3  17     0.00   0.00   0.00     0.00   0.00   0.00     0.00   0.00   0.00
     4   7     0.00   0.00   0.00     0.00   0.00   0.00     0.00   0.00   0.00
     5   1     0.00  -0.01   0.01     0.01   0.01  -0.01     0.00   0.00   0.00
     6   1    -0.03  -0.01   0.00     0.04   0.01   0.01     0.00   0.00   0.00
     7   8     0.00   0.00   0.00     0.00   0.00   0.00    -0.05   0.03   0.02
     8   1     0.00   0.00   0.00     0.01  -0.01   0.00     0.75  -0.61  -0.20
     9   1     0.00   0.00   0.00     0.00   0.00   0.00     0.08   0.09  -0.04
    10   7     0.00   0.06  -0.05     0.01   0.05   0.06     0.00   0.00   0.00
    11   1    -0.29  -0.63   0.32    -0.07  -0.16   0.10     0.00   0.00   0.00
    12   1     0.25  -0.05   0.55    -0.22   0.07  -0.49     0.00   0.00   0.00
    13   1     0.06  -0.16  -0.14     0.21  -0.64  -0.45     0.00   0.01   0.01
    14   1     0.00   0.01   0.00     0.00  -0.01   0.00     0.00   0.00   0.00

 -------------------
 - Thermochemistry -
 -------------------
 Temperature   298.150 Kelvin.  Pressure   1.00000 Atm.
 Atom     1 has atomic number 78 and mass 194.96480
 Atom     2 has atomic number 17 and mass  34.96885
 Atom     3 has atomic number 17 and mass  34.96885
 Atom     4 has atomic number  7 and mass  14.00307
 Atom     5 has atomic number  1 and mass   1.00783
 Atom     6 has atomic number  1 and mass   1.00783
 Atom     7 has atomic number  8 and mass  15.99491
 Atom     8 has atomic number  1 and mass   1.00783
 Atom     9 has atomic number  1 and mass   1.00783
 Atom    10 has atomic number  7 and mass  14.00307
 Atom    11 has atomic number  1 and mass   1.00783
 Atom    12 has atomic number  1 and mass   1.00783
 Atom    13 has atomic number  1 and mass   1.00783
 Atom    14 has atomic number  1 and mass   1.00783
 Molecular mass:   316.96617 amu.
 Principal axes and moments of inertia in atomic units:
                           1         2         3
     Eigenvalues --  1422.696191636.892892073.37165
           X            0.99988   0.01328   0.00838
           Y           -0.01425   0.99155   0.12894
           Z           -0.00660  -0.12905   0.99162
 This molecule is an asymmetric top.
 Rotational symmetry number  1.
 Warning -- assumption of classical behavior for rotation
           may cause significant error
 Rotational temperatures (Kelvin)      0.06088     0.05291     0.04177
 Rotational constants (GHZ):           1.26854     1.10254     0.87044
    1 imaginary frequencies ignored.
 Zero-point vibrational energy     280304.9 (Joules/Mol)
                                   66.99447 (Kcal/Mol)
 Warning -- explicit consideration of  14 degrees of freedom as
           vibrations may cause significant error
 Vibrational temperatures:     86.02   115.40   134.76   173.45   194.08
          (Kelvin)            208.59   268.58   287.26   326.08   338.22
                              398.31   599.26   632.32   793.11  1039.99
                             1074.21  1090.95  1182.61  1257.18  1315.04
                             1832.85  1907.71  2283.75  2301.49  2322.00
                             2325.10  2338.48  4908.81  4963.45  5030.45
                             5036.72  5072.36  5092.62  5104.00  5390.55
 
 Zero-point correction=                           0.106762 (Hartree/Particle)
 Thermal correction to Energy=                    0.117836
 Thermal correction to Enthalpy=                  0.118780
 Thermal correction to Gibbs Free Energy=         0.067908
 Sum of electronic and zero-point Energies=          -1229.542033
 Sum of electronic and thermal Energies=             -1229.530959
 Sum of electronic and thermal Enthalpies=           -1229.530015
 Sum of electronic and thermal Free Energies=        -1229.580887
 
                     E (Thermal)             CV                S
                      KCal/Mol        Cal/Mol-Kelvin    Cal/Mol-Kelvin
 Total                   73.943             35.005            107.069
 Electronic               0.000              0.000              0.000
 Translational            0.889              2.981             43.157
 Rotational               0.889              2.981             29.958
 Vibrational             72.166             29.043             33.954
 Vibration     1          0.597              1.973              4.464
 Vibration     2          0.600              1.963              3.886
 Vibration     3          0.603              1.954              3.582
 Vibration     4          0.609              1.932              3.092
 Vibration     5          0.613              1.918              2.875
 Vibration     6          0.616              1.908              2.737
 Vibration     7          0.632              1.858              2.261
 Vibration     8          0.638              1.840              2.136
 Vibration     9          0.650              1.800              1.905
 Vibration    10          0.655              1.787              1.840
 Vibration    11          0.678              1.716              1.553
 Vibration    12          0.780              1.434              0.904
 Vibration    13          0.800              1.384              0.828
 Vibration    14          0.907              1.137              0.542
                       Q            Log10(Q)             Ln(Q)
 Total Bot       0.581350D-31        -31.235562        -71.922540
 Total V=0       0.744165D+18         17.871669         41.151039
 Vib (Bot)       0.333205D-45        -45.477288       -104.715326
 Vib (Bot)    1  0.345411D+01          0.538336          1.239565
 Vib (Bot)    2  0.256761D+01          0.409529          0.942976
 Vib (Bot)    3  0.219366D+01          0.341169          0.785570
 Vib (Bot)    4  0.169498D+01          0.229164          0.527669
 Vib (Bot)    5  0.150944D+01          0.178816          0.411739
 Vib (Bot)    6  0.140063D+01          0.146324          0.336923
 Vib (Bot)    7  0.107343D+01          0.030772          0.070855
 Vib (Bot)    8  0.998829D+00         -0.000509         -0.001171
 Vib (Bot)    9  0.870311D+00         -0.060326         -0.138905
 Vib (Bot)   10  0.835977D+00         -0.077806         -0.179154
 Vib (Bot)   11  0.695633D+00         -0.157620         -0.362933
 Vib (Bot)   12  0.422701D+00         -0.373967         -0.861091
 Vib (Bot)   13  0.393515D+00         -0.405039         -0.932637
 Vib (Bot)   14  0.284349D+00         -0.546148         -1.257553
 Vib (V=0)       0.426524D+04          3.629943          8.358253
 Vib (V=0)    1  0.399011D+01          0.600985          1.383819
 Vib (V=0)    2  0.311584D+01          0.493575          1.136499
 Vib (V=0)    3  0.274992D+01          0.439320          1.011571
 Vib (V=0)    4  0.226719D+01          0.355487          0.818539
 Vib (V=0)    5  0.209010D+01          0.320167          0.737211
 Vib (V=0)    6  0.198720D+01          0.298242          0.686727
 Vib (V=0)    7  0.168416D+01          0.226384          0.521269
 Vib (V=0)    8  0.161699D+01          0.208707          0.480565
 Vib (V=0)    9  0.150371D+01          0.177165          0.407938
 Vib (V=0)   10  0.147409D+01          0.168525          0.388043
 Vib (V=0)   11  0.135668D+01          0.132478          0.305042
 Vib (V=0)   12  0.115473D+01          0.062482          0.143869
 Vib (V=0)   13  0.113628D+01          0.055486          0.127761
 Vib (V=0)   14  0.107520D+01          0.031489          0.072506
 Electronic      0.100000D+01          0.000000          0.000000
 Translational   0.221807D+09          8.345975         19.217317
 Rotational      0.786595D+06          5.895751         13.575469
 
                                                         Title Card Required
                                                             IR Spectrum
 
     3    33333 33                                                         11111        11                                           
     7    55554 44                                                         66665        32            98 8777     5  44 22221111     
     4    44209 51                                                         21108        27            17 2542     5  31 73208432986  
     7    70516 02                                                         56407        64            44 2873     1  97 75707551400  
 
     X    XXXXX XX                                                         XXXXX        XX            XX XXXX     X  XX XXXXXXXXXXX  
     X    XXXXX X                                                          XXXXX        XX            X  X XX         X XXXXX        
     X    XXXXX X                                                           XXXX        XX            X  X XX           X  XX        
     X    XXXXX                                                              XXX        XX               X XX           X  XX        
     X     X XX                                                                X        X                X XX           X   X        
     X     X XX                                                                X        X                X XX                        
     X        X                                                                         X                  X                         
     X        X                                                                         X                  X                         
     X        X                                                                                            X                         
     X        X                                                                                            X                         
     X        X                                                                                            X                         
     X        X                                                                                            X                         
              X                                                                                            X                         
              X                                                                                            X                         
              X                                                                                            X                         
              X                                                                                            X                         
              X                                                                                            X                         
                                                                                                           X                         
                                                                                                           X                         
                                                                                                           X                         
 
 ***** Axes restored to original set *****
 -------------------------------------------------------------------
 Center     Atomic                   Forces (Hartrees/Bohr)
 Number     Number              X              Y              Z
 -------------------------------------------------------------------
      1       78           0.000228638    0.000070263   -0.000189447
      2       17          -0.000210042   -0.000085425   -0.000287801
      3       17          -0.000081624    0.000141702    0.000152620
      4        7           0.000101781   -0.000030804   -0.000097384
      5        1           0.000005376   -0.000119112    0.000039643
      6        1           0.000007693   -0.000054101   -0.000063442
      7        8          -0.000184279   -0.000139524    0.000376908
      8        1           0.000248405    0.000057919   -0.000273163
      9        1          -0.000011665   -0.000078034    0.000009447
     10        7          -0.000126230    0.000180374   -0.000040609
     11        1           0.000034583   -0.000100607   -0.000014956
     12        1           0.000001961   -0.000069867    0.000125891
     13        1          -0.000039809    0.000219726    0.000185910
     14        1           0.000025210    0.000007489    0.000076382
 -------------------------------------------------------------------
 Cartesian Forces:  Max     0.000376908 RMS     0.000141067
 Red2BG is reusing G-inverse.
 Leave Link  716 at Wed Dec 23 14:16:29 2020, MaxMem=  4026531840 cpu:         1.0
 (Enter /home/scicons/Gaussian09D/Gaussian09.D01/l9999.exe)


 There ain't no surer way to find out whether you
 like people or hate them than to travel with them.
                                     -- Mark Twain
 Error termination request processed by link 9999.
 Error termination via Lnk1e in /home/scicons/Gaussian09D/Gaussian09.D01/l9999.exe at Wed Dec 23 14:16:29 2020.
 Job cpu time:       3 days 16 hours 45 minutes 49.4 seconds.
 File lengths (MBytes):  RWF=    166 Int=      0 D2E=      0 Chk=     13 Scr=      1
