 Entering Gaussian System, Link 0=g09
 Input=pt-n-n-nosolvent.com
 Output=pt-n-n-nosolvent.log
 Initial command:
 /home/scicons/Gaussian09D/Gaussian09.D01/l1.exe "/tmp/Gau-28000.inp" -scrdir="/tmp/"
 Entering Link 1 = /home/scicons/Gaussian09D/Gaussian09.D01/l1.exe PID=     28001.
  
 Copyright (c) 1988,1990,1992,1993,1995,1998,2003,2009,2013,
            Gaussian, Inc.  All Rights Reserved.
  
 This is part of the Gaussian(R) 09 program.  It is based on
 the Gaussian(R) 03 system (copyright 2003, Gaussian, Inc.),
 the Gaussian(R) 98 system (copyright 1998, Gaussian, Inc.),
 the Gaussian(R) 94 system (copyright 1995, Gaussian, Inc.),
 the Gaussian 92(TM) system (copyright 1992, Gaussian, Inc.),
 the Gaussian 90(TM) system (copyright 1990, Gaussian, Inc.),
 the Gaussian 88(TM) system (copyright 1988, Gaussian, Inc.),
 the Gaussian 86(TM) system (copyright 1986, Carnegie Mellon
 University), and the Gaussian 82(TM) system (copyright 1983,
 Carnegie Mellon University). Gaussian is a federally registered
 trademark of Gaussian, Inc.
  
 This software contains proprietary and confidential information,
 including trade secrets, belonging to Gaussian, Inc.
  
 This software is provided under written license and may be
 used, copied, transmitted, or stored only in accord with that
 written license.
  
 The following legend is applicable only to US Government
 contracts under FAR:
  
                    RESTRICTED RIGHTS LEGEND
  
 Use, reproduction and disclosure by the US Government is
 subject to restrictions as set forth in subparagraphs (a)
 and (c) of the Commercial Computer Software - Restricted
 Rights clause in FAR 52.227-19.
  
 Gaussian, Inc.
 340 Quinnipiac St., Bldg. 40, Wallingford CT 06492
  
  
 ---------------------------------------------------------------
 Warning -- This program may not be used in any manner that
 competes with the business of Gaussian, Inc. or will provide
 assistance to any competitor of Gaussian, Inc.  The licensee
 of this program is prohibited from giving any competitor of
 Gaussian, Inc. access to this program.  By using this program,
 the user acknowledges that Gaussian, Inc. is engaged in the
 business of creating and licensing software in the field of
 computational chemistry and represents and warrants to the
 licensee that it is not a competitor of Gaussian, Inc. and that
 it will not use this program in any manner prohibited above.
 ---------------------------------------------------------------
  

 Cite this work as:
 Gaussian 09, Revision D.01,
 M. J. Frisch, G. W. Trucks, H. B. Schlegel, G. E. Scuseria, 
 M. A. Robb, J. R. Cheeseman, G. Scalmani, V. Barone, B. Mennucci, 
 G. A. Petersson, H. Nakatsuji, M. Caricato, X. Li, H. P. Hratchian, 
 A. F. Izmaylov, J. Bloino, G. Zheng, J. L. Sonnenberg, M. Hada, 
 M. Ehara, K. Toyota, R. Fukuda, J. Hasegawa, M. Ishida, T. Nakajima, 
 Y. Honda, O. Kitao, H. Nakai, T. Vreven, J. A. Montgomery, Jr., 
 J. E. Peralta, F. Ogliaro, M. Bearpark, J. J. Heyd, E. Brothers, 
 K. N. Kudin, V. N. Staroverov, T. Keith, R. Kobayashi, J. Normand, 
 K. Raghavachari, A. Rendell, J. C. Burant, S. S. Iyengar, J. Tomasi, 
 M. Cossi, N. Rega, J. M. Millam, M. Klene, J. E. Knox, J. B. Cross, 
 V. Bakken, C. Adamo, J. Jaramillo, R. Gomperts, R. E. Stratmann, 
 O. Yazyev, A. J. Austin, R. Cammi, C. Pomelli, J. W. Ochterski, 
 R. L. Martin, K. Morokuma, V. G. Zakrzewski, G. A. Voth, 
 P. Salvador, J. J. Dannenberg, S. Dapprich, A. D. Daniels, 
 O. Farkas, J. B. Foresman, J. V. Ortiz, J. Cioslowski, 
 and D. J. Fox, Gaussian, Inc., Wallingford CT, 2013.
 
 ******************************************
 Gaussian 09:  ES64L-G09RevD.01 24-Apr-2013
                23-Dec-2020 
 ******************************************
 %nprocshared=20
 Will use up to   20 processors via shared memory.
 %mem=30GB
 %chk=pt-n-n-nosolvent.chk
 ---------------------------------------------------------------------
 #p opt=(calcall,ts,noeigen) b3lyp geom=connectivity def2tzvp em=gd3bj
 ---------------------------------------------------------------------
 1/5=1,10=4,11=1,14=-1,18=20,26=3,38=1,57=2/1,3;
 2/9=110,12=2,17=6,18=5,40=1/2;
 3/5=44,7=101,11=2,16=1,25=1,30=1,71=2,74=-5,124=41,140=1/1,2,3;
 4//1;
 5/5=2,38=5/2;
 8/6=4,10=90,11=11/1;
 11/6=1,8=1,9=11,15=111,16=1/1,2,10;
 10/6=1/2;
 6/7=2,8=2,9=2,10=2,18=1,28=1/1;
 7/10=1,25=1/1,2,3,16;
 1/5=1,10=4,11=1,14=-1,18=20,26=3/3(3);
 2/9=110/2;
 7/8=1,9=1,25=1,44=-1/16;
 99//99;
 2/9=110/2;
 3/5=44,7=101,11=2,16=1,25=1,30=1,71=2,74=-5,124=41,140=1/1,2,3;
 4/5=5,16=3,69=1/1;
 5/5=2,38=5/2;
 8/6=4,10=90,11=11/1;
 11/6=1,8=1,9=11,15=111,16=1/1,2,10;
 10/6=1/2;
 7/10=1,25=1/1,2,3,16;
 1/5=1,10=4,11=1,14=-1,18=20,26=3/3(-8);
 2/9=110/2;
 6/7=2,8=2,9=2,10=2,18=1,19=2,28=1/1;
 7/8=1,9=1,25=1,44=-1/16;
 99//99;
 Leave Link    1 at Wed Dec 23 12:32:54 2020, MaxMem=  4026531840 cpu:         1.1
 (Enter /home/scicons/Gaussian09D/Gaussian09.D01/l101.exe)
 -------------------
 Title Card Required
 -------------------
 Symbolic Z-matrix:
 Charge =  0 Multiplicity = 1
 Pt                    0.17465   0.01264   0.11238 
 N                     0.08159  -2.0365    0.25567 
 H                    -0.30679  -2.32896   1.14976 
 H                    -0.5263   -2.39406  -0.47834 
 Cl                    2.41447  -0.09268  -0.46508 
 O                    -1.67628   0.12258   1.71561 
 H                    -2.30089   0.10462   0.95498 
 H                    -1.69135   1.03323   2.04232 
 Cl                   -2.35955  -0.10758  -1.15058 
 N                     0.2111    2.06562  -0.0542 
 H                    -0.50288   2.37796  -0.70866 
 H                     0.02774   2.51444   0.84088 
 H                     0.99368  -2.47408   0.15226 
 H                     1.11198   2.40059  -0.38816 
 
 Add virtual bond connecting atoms Cl9        and H7         Dist= 4.00D+00.
 Add virtual bond connecting atoms O6         and Pt1        Dist= 4.63D+00.
 Add virtual bond connecting atoms H8         and H12        Dist= 4.85D+00.
 NAtoms=     14 NQM=       14 NQMF=       0 NMMI=      0 NMMIF=      0
                NMic=       0 NMicF=      0.
                    Isotopes and Nuclear Properties:
 (Nuclear quadrupole moments (NQMom) in fm**2, nuclear magnetic moments (NMagM)
  in nuclear magnetons)

  Atom         1           2           3           4           5           6           7           8           9          10
 IAtWgt=         195          14           1           1          35          16           1           1          35          14
 AtmWgt= 194.9648000  14.0030740   1.0078250   1.0078250  34.9688527  15.9949146   1.0078250   1.0078250  34.9688527  14.0030740
 NucSpn=           1           2           1           1           3           0           1           1           3           2
 AtZEff=   0.0000000   0.0000000   0.0000000   0.0000000   0.0000000   0.0000000   0.0000000   0.0000000   0.0000000   0.0000000
 NQMom=    0.0000000   2.0440000   0.0000000   0.0000000  -8.1650000   0.0000000   0.0000000   0.0000000  -8.1650000   2.0440000
 NMagM=    0.6095000   0.4037610   2.7928460   2.7928460   0.8218740   0.0000000   2.7928460   2.7928460   0.8218740   0.4037610
 AtZNuc=  78.0000000   7.0000000   1.0000000   1.0000000  17.0000000   8.0000000   1.0000000   1.0000000  17.0000000   7.0000000

  Atom        11          12          13          14
 IAtWgt=           1           1           1           1
 AtmWgt=   1.0078250   1.0078250   1.0078250   1.0078250
 NucSpn=           1           1           1           1
 AtZEff=   0.0000000   0.0000000   0.0000000   0.0000000
 NQMom=    0.0000000   0.0000000   0.0000000   0.0000000
 NMagM=    2.7928460   2.7928460   2.7928460   2.7928460
 AtZNuc=   1.0000000   1.0000000   1.0000000   1.0000000
 Leave Link  101 at Wed Dec 23 12:32:55 2020, MaxMem=  4026531840 cpu:         5.2
 (Enter /home/scicons/Gaussian09D/Gaussian09.D01/l103.exe)

 GradGradGradGradGradGradGradGradGradGradGradGradGradGradGradGradGradGrad
 Berny optimization.
 Initialization pass.
                           ----------------------------
                           !    Initial Parameters    !
                           ! (Angstroms and Degrees)  !
 --------------------------                            --------------------------
 ! Name  Definition              Value          Derivative Info.                !
 --------------------------------------------------------------------------------
 ! R1    R(1,2)                  2.0563         calculate D2E/DX2 analytically  !
 ! R2    R(1,5)                  2.3155         calculate D2E/DX2 analytically  !
 ! R3    R(1,6)                  2.4512         calculate D2E/DX2 analytically  !
 ! R4    R(1,10)                 2.06           calculate D2E/DX2 analytically  !
 ! R5    R(2,3)                  1.0177         calculate D2E/DX2 analytically  !
 ! R6    R(2,4)                  1.0179         calculate D2E/DX2 analytically  !
 ! R7    R(2,13)                 1.0169         calculate D2E/DX2 analytically  !
 ! R8    R(6,7)                  0.9844         calculate D2E/DX2 analytically  !
 ! R9    R(6,8)                  0.9676         calculate D2E/DX2 analytically  !
 ! R10   R(7,9)                  2.117          calculate D2E/DX2 analytically  !
 ! R11   R(8,12)                 2.5676         calculate D2E/DX2 analytically  !
 ! R12   R(10,11)                1.0177         calculate D2E/DX2 analytically  !
 ! R13   R(10,12)                1.0179         calculate D2E/DX2 analytically  !
 ! R14   R(10,14)                1.0175         calculate D2E/DX2 analytically  !
 ! A1    A(2,1,5)               90.9069         calculate D2E/DX2 analytically  !
 ! A2    A(2,1,6)               87.9911         calculate D2E/DX2 analytically  !
 ! A3    A(5,1,6)              153.5861         calculate D2E/DX2 analytically  !
 ! A4    A(5,1,10)              90.4609         calculate D2E/DX2 analytically  !
 ! A5    A(6,1,10)              91.2351         calculate D2E/DX2 analytically  !
 ! A6    A(1,2,3)              111.399          calculate D2E/DX2 analytically  !
 ! A7    A(1,2,4)              109.0765         calculate D2E/DX2 analytically  !
 ! A8    A(1,2,13)             112.4048         calculate D2E/DX2 analytically  !
 ! A9    A(3,2,4)              107.7373         calculate D2E/DX2 analytically  !
 ! A10   A(3,2,13)             107.9366         calculate D2E/DX2 analytically  !
 ! A11   A(4,2,13)             108.1288         calculate D2E/DX2 analytically  !
 ! A12   A(1,6,7)               88.4487         calculate D2E/DX2 analytically  !
 ! A13   A(1,6,8)              105.9511         calculate D2E/DX2 analytically  !
 ! A14   A(7,6,8)              105.5568         calculate D2E/DX2 analytically  !
 ! A15   A(6,7,9)              141.9909         calculate D2E/DX2 analytically  !
 ! A16   A(6,8,12)             111.9936         calculate D2E/DX2 analytically  !
 ! A17   A(1,10,11)            110.2091         calculate D2E/DX2 analytically  !
 ! A18   A(1,10,12)            111.4139         calculate D2E/DX2 analytically  !
 ! A19   A(1,10,14)            111.733          calculate D2E/DX2 analytically  !
 ! A20   A(11,10,12)           107.6849         calculate D2E/DX2 analytically  !
 ! A21   A(11,10,14)           108.0022         calculate D2E/DX2 analytically  !
 ! A22   A(12,10,14)           107.6339         calculate D2E/DX2 analytically  !
 ! A23   A(8,12,10)            106.1224         calculate D2E/DX2 analytically  !
 ! A24   L(2,1,10,5,-1)        181.3679         calculate D2E/DX2 analytically  !
 ! A25   L(2,1,10,5,-2)        178.9837         calculate D2E/DX2 analytically  !
 ! D1    D(5,1,2,3)            127.7079         calculate D2E/DX2 analytically  !
 ! D2    D(5,1,2,4)           -113.4927         calculate D2E/DX2 analytically  !
 ! D3    D(5,1,2,13)             6.4205         calculate D2E/DX2 analytically  !
 ! D4    D(6,1,2,3)            -25.8921         calculate D2E/DX2 analytically  !
 ! D5    D(6,1,2,4)             92.9072         calculate D2E/DX2 analytically  !
 ! D6    D(6,1,2,13)          -147.1795         calculate D2E/DX2 analytically  !
 ! D7    D(3,2,10,11)         -107.5147         calculate D2E/DX2 analytically  !
 ! D8    D(3,2,10,12)           11.533          calculate D2E/DX2 analytically  !
 ! D9    D(3,2,10,14)          132.5282         calculate D2E/DX2 analytically  !
 ! D10   D(4,2,10,11)           10.8071         calculate D2E/DX2 analytically  !
 ! D11   D(4,2,10,12)          129.8547         calculate D2E/DX2 analytically  !
 ! D12   D(4,2,10,14)         -109.1501         calculate D2E/DX2 analytically  !
 ! D13   D(13,2,10,11)         130.6834         calculate D2E/DX2 analytically  !
 ! D14   D(13,2,10,12)        -110.269          calculate D2E/DX2 analytically  !
 ! D15   D(13,2,10,14)          10.7262         calculate D2E/DX2 analytically  !
 ! D16   D(2,1,6,7)            -90.344          calculate D2E/DX2 analytically  !
 ! D17   D(2,1,6,8)            163.9146         calculate D2E/DX2 analytically  !
 ! D18   D(5,1,6,7)           -178.3374         calculate D2E/DX2 analytically  !
 ! D19   D(5,1,6,8)             75.9212         calculate D2E/DX2 analytically  !
 ! D20   D(10,1,6,7)            88.1372         calculate D2E/DX2 analytically  !
 ! D21   D(10,1,6,8)           -17.6042         calculate D2E/DX2 analytically  !
 ! D22   D(5,1,10,11)          124.3476         calculate D2E/DX2 analytically  !
 ! D23   D(5,1,10,12)         -116.1752         calculate D2E/DX2 analytically  !
 ! D24   D(5,1,10,14)            4.2641         calculate D2E/DX2 analytically  !
 ! D25   D(6,1,10,11)          -82.0133         calculate D2E/DX2 analytically  !
 ! D26   D(6,1,10,12)           37.4638         calculate D2E/DX2 analytically  !
 ! D27   D(6,1,10,14)          157.9031         calculate D2E/DX2 analytically  !
 ! D28   D(1,6,7,9)              5.4724         calculate D2E/DX2 analytically  !
 ! D29   D(8,6,7,9)            111.6033         calculate D2E/DX2 analytically  !
 ! D30   D(1,6,8,12)             4.5952         calculate D2E/DX2 analytically  !
 ! D31   D(7,6,8,12)           -88.2905         calculate D2E/DX2 analytically  !
 ! D32   D(6,8,12,10)           23.2122         calculate D2E/DX2 analytically  !
 ! D33   D(1,10,12,8)          -35.735          calculate D2E/DX2 analytically  !
 ! D34   D(11,10,12,8)          85.23           calculate D2E/DX2 analytically  !
 ! D35   D(14,10,12,8)        -158.5557         calculate D2E/DX2 analytically  !
 --------------------------------------------------------------------------------
 Trust Radius=3.00D-01 FncErr=1.00D-07 GrdErr=1.00D-06
 Number of steps in this run=     84 maximum allowed number of steps=    100.
 Search for a saddle point of order  1.
 GradGradGradGradGradGradGradGradGradGradGradGradGradGradGradGradGradGrad

 Leave Link  103 at Wed Dec 23 12:32:55 2020, MaxMem=  4026531840 cpu:         0.1
 (Enter /home/scicons/Gaussian09D/Gaussian09.D01/l202.exe)
                          Input orientation:                          
 ---------------------------------------------------------------------
 Center     Atomic      Atomic             Coordinates (Angstroms)
 Number     Number       Type             X           Y           Z
 ---------------------------------------------------------------------
      1         78           0        0.174647    0.012642    0.112384
      2          7           0        0.081591   -2.036499    0.255672
      3          1           0       -0.306788   -2.328957    1.149756
      4          1           0       -0.526299   -2.394061   -0.478344
      5         17           0        2.414472   -0.092676   -0.465077
      6          8           0       -1.676280    0.122579    1.715607
      7          1           0       -2.300890    0.104619    0.954980
      8          1           0       -1.691348    1.033227    2.042323
      9         17           0       -2.359547   -0.107578   -1.150583
     10          7           0        0.211101    2.065621   -0.054195
     11          1           0       -0.502877    2.377956   -0.708660
     12          1           0        0.027738    2.514440    0.840881
     13          1           0        0.993675   -2.474081    0.152263
     14          1           0        1.111984    2.400590   -0.388159
 ---------------------------------------------------------------------
                    Distance matrix (angstroms):
                    1          2          3          4          5
     1  Pt   0.000000
     2  N    2.056251   0.000000
     3  H    2.605956   1.017721   0.000000
     4  H    2.575365   1.017920   1.644121   0.000000
     5  Cl   2.315463   3.120939   3.874777   3.734258   0.000000
     6  O    2.451192   3.143746   2.864564   3.531197   4.640686
     7  H    2.616622   3.278663   3.152249   3.383340   4.928501
     8  H    2.871967   3.969717   3.744057   4.411055   4.940898
     9  Cl   2.834021   3.414300   3.799987   3.006777   4.823007
    10  N    2.060049   4.115845   4.585850   4.540091   3.111577
    11  H    2.593812   4.556199   5.064306   4.777629   3.830702
    12  H    2.609844   4.588727   4.864751   5.112797   3.768167
    13  H    2.618432   1.016892   1.645375   1.647540   2.840926
    14  H    2.613702   4.600433   5.171722   5.067621   2.814030
                    6          7          8          9         10
     6  O    0.000000
     7  H    0.984385   0.000000
     8  H    0.967600   1.554403   0.000000
     9  Cl   2.955482   2.117041   3.455803   0.000000
    10  N    3.235710   3.342763   3.013393   3.540211   0.000000
    11  H    3.512929   3.341947   3.284611   3.133752   1.017665
    12  H    3.064282   3.353023   2.567628   4.066944   1.017950
    13  H    4.039226   4.260071   4.804465   4.306024   4.611284
    14  H    4.170082   4.327033   3.954187   4.350141   1.017510
                   11         12         13         14
    11  H    0.000000
    12  H    1.643550   0.000000
    13  H    5.150060   5.127628   0.000000
    14  H    1.646514   1.642891   4.905963   0.000000
 Stoichiometry    Cl2H8N2OPt
 Framework group  C1[X(Cl2H8N2OPt)]
 Deg. of freedom    36
 Full point group                 C1      NOp   1
 Largest Abelian subgroup         C1      NOp   1
 Largest concise Abelian subgroup C1      NOp   1
                         Standard orientation:                         
 ---------------------------------------------------------------------
 Center     Atomic      Atomic             Coordinates (Angstroms)
 Number     Number       Type             X           Y           Z
 ---------------------------------------------------------------------
      1         78           0        0.174647    0.012642    0.112384
      2          7           0        0.081591   -2.036499    0.255672
      3          1           0       -0.306788   -2.328957    1.149756
      4          1           0       -0.526299   -2.394061   -0.478344
      5         17           0        2.414472   -0.092676   -0.465077
      6          8           0       -1.676280    0.122579    1.715607
      7          1           0       -2.300890    0.104620    0.954980
      8          1           0       -1.691348    1.033227    2.042323
      9         17           0       -2.359547   -0.107577   -1.150583
     10          7           0        0.211101    2.065621   -0.054195
     11          1           0       -0.502877    2.377956   -0.708660
     12          1           0        0.027738    2.514440    0.840881
     13          1           0        0.993675   -2.474081    0.152263
     14          1           0        1.111984    2.400590   -0.388159
 ---------------------------------------------------------------------
 Rotational constants (GHZ):      1.8898230      0.8814389      0.8200416
 Leave Link  202 at Wed Dec 23 12:32:55 2020, MaxMem=  4026531840 cpu:         0.1
 (Enter /home/scicons/Gaussian09D/Gaussian09.D01/l301.exe)
 Standard basis: def2TZVP (5D, 7F)
 Ernie: Thresh=  0.10000D-02 Tol=  0.10000D-05 Strict=F.
 There are   286 symmetry adapted cartesian basis functions of A   symmetry.
 There are   255 symmetry adapted basis functions of A   symmetry.
   255 basis functions,   430 primitive gaussians,   286 cartesian basis functions
    41 alpha electrons       41 beta electrons
       nuclear repulsion energy       517.9659491154 Hartrees.
 IExCor=  402 DFT=T Ex+Corr=B3LYP ExCW=0 ScaHFX=  0.200000
 ScaDFX=  0.800000  0.720000  1.000000  0.810000 ScalE2=  1.000000  1.000000
 IRadAn=      0 IRanWt=     -1 IRanGd=            0 ICorTp=0 IEmpDi=141
 NAtoms=   14 NActive=   14 NUniq=   14 SFac= 1.00D+00 NAtFMM=   60 NAOKFM=F Big=F
 Integral buffers will be    131072 words long.
 Raffenetti 2 integral format.
 Two-electron integral symmetry is turned on.
 R6Disp:  Grimme-D3(BJ) Dispersion energy=       -0.0277900755 Hartrees.
 Nuclear repulsion after empirical dispersion term =      517.9381590399 Hartrees.
 Leave Link  301 at Wed Dec 23 12:32:55 2020, MaxMem=  4026531840 cpu:         0.7
 (Enter /home/scicons/Gaussian09D/Gaussian09.D01/l302.exe)
 NPDir=0 NMtPBC=     1 NCelOv=     1 NCel=       1 NClECP=     1 NCelD=      1
         NCelK=      1 NCelE2=     1 NClLst=     1 CellRange=     0.0.
 One-electron integrals computed using PRISM.
   1 Symmetry operations used in ECPInt.
 ECPInt:  NShTT=    5565 NPrTT=   17197 LenC2=    5365 LenP2D=   12655.
 LDataN:  DoStor=T MaxTD1= 8 Len=  415
 NBasis=   255 RedAO= T EigKep=  1.70D-03  NBF=   255
 NBsUse=   255 1.00D-06 EigRej= -1.00D+00 NBFU=   255
 Precomputing XC quadrature grid using
 IXCGrd= 4 IRadAn=           0 IRanWt=          -1 IRanGd=           0 AccXCQ= 0.00D+00.
 Defaulting to unpruned grid for atomic number  78.
 Generated NRdTot=       0 NPtTot=           0 NUsed=           0 NTot=          32
 NSgBfM=   284   284   284   284   284 MxSgAt=    14 MxSgA2=    14.
 Leave Link  302 at Wed Dec 23 12:32:55 2020, MaxMem=  4026531840 cpu:         7.2
 (Enter /home/scicons/Gaussian09D/Gaussian09.D01/l303.exe)
 DipDrv:  MaxL=1.
 Leave Link  303 at Wed Dec 23 12:32:55 2020, MaxMem=  4026531840 cpu:         0.6
 (Enter /home/scicons/Gaussian09D/Gaussian09.D01/l401.exe)
 ExpMin= 4.92D-02 ExpMax= 6.95D+04 ExpMxC= 2.37D+03 IAcc=2 IRadAn=         4 AccDes= 0.00D+00
 Harris functional with IExCor=  402 and IRadAn=       4 diagonalized for initial guess.
 HarFok:  IExCor=  402 AccDes= 0.00D+00 IRadAn=         4 IDoV= 1 UseB2=F ITyADJ=14
 ICtDFT=  3500011 ScaDFX=  1.000000  1.000000  1.000000  1.000000
 Defaulting to unpruned grid for atomic number  78.
 Defaulting to unpruned grid for atomic number  78.
 Defaulting to unpruned grid for atomic number  78.
 Defaulting to unpruned grid for atomic number  78.
 Defaulting to unpruned grid for atomic number  78.
 Defaulting to unpruned grid for atomic number  78.
 Defaulting to unpruned grid for atomic number  78.
 Defaulting to unpruned grid for atomic number  78.
 Defaulting to unpruned grid for atomic number  78.
 Defaulting to unpruned grid for atomic number  78.
 Defaulting to unpruned grid for atomic number  78.
 Defaulting to unpruned grid for atomic number  78.
 Defaulting to unpruned grid for atomic number  78.
 Defaulting to unpruned grid for atomic number  78.
 Defaulting to unpruned grid for atomic number  78.
 Defaulting to unpruned grid for atomic number  78.
 Defaulting to unpruned grid for atomic number  78.
 Defaulting to unpruned grid for atomic number  78.
 Defaulting to unpruned grid for atomic number  78.
 Defaulting to unpruned grid for atomic number  78.
 FoFCou: FMM=F IPFlag=           0 FMFlag=      100000 FMFlg1=           0
         NFxFlg=           0 DoJE=T BraDBF=F KetDBF=T FulRan=T
         wScrn=  0.000000 ICntrl=     500 IOpCl=  0 I1Cent=   200000004 NGrid=           0
         NMat0=    1 NMatS0=      1 NMatT0=    0 NMatD0=    1 NMtDS0=    0 NMtDT0=    0
 Petite list used in FoFCou.
 Harris En= -1229.23310585269    
 JPrj=0 DoOrth=F DoCkMO=F.
 Leave Link  401 at Wed Dec 23 12:32:56 2020, MaxMem=  4026531840 cpu:         7.3
 (Enter /home/scicons/Gaussian09D/Gaussian09.D01/l502.exe)
 Closed shell SCF:
 Using DIIS extrapolation, IDIIS=  1040.
 Integral symmetry usage will be decided dynamically.
 Keep R1 ints in memory in canonical form, NReq=544792690.
 IVT=      271762 IEndB=      271762 NGot=  4026531840 MDV=  3493558959
 LenX=  3493558959 LenY=  3493476722
 Requested convergence on RMS density matrix=1.00D-08 within 128 cycles.
 Requested convergence on MAX density matrix=1.00D-06.
 Requested convergence on             energy=1.00D-06.
 No special actions if energy rises.
 FoFCou: FMM=F IPFlag=           0 FMFlag=           0 FMFlg1=           0
         NFxFlg=           0 DoJE=F BraDBF=F KetDBF=F FulRan=T
         wScrn=  0.000000 ICntrl=     600 IOpCl=  0 I1Cent=           0 NGrid=           0
         NMat0=    1 NMatS0=  32640 NMatT0=    0 NMatD0=    1 NMtDS0=    0 NMtDT0=    0
 Symmetry not used in FoFCou.

 Cycle   1  Pass 1  IDiag  1:
 Defaulting to unpruned grid for atomic number  78.
 Defaulting to unpruned grid for atomic number  78.
 Defaulting to unpruned grid for atomic number  78.
 Defaulting to unpruned grid for atomic number  78.
 Defaulting to unpruned grid for atomic number  78.
 Defaulting to unpruned grid for atomic number  78.
 Defaulting to unpruned grid for atomic number  78.
 Defaulting to unpruned grid for atomic number  78.
 Defaulting to unpruned grid for atomic number  78.
 Defaulting to unpruned grid for atomic number  78.
 Defaulting to unpruned grid for atomic number  78.
 Defaulting to unpruned grid for atomic number  78.
 Defaulting to unpruned grid for atomic number  78.
 Defaulting to unpruned grid for atomic number  78.
 Defaulting to unpruned grid for atomic number  78.
 Defaulting to unpruned grid for atomic number  78.
 Defaulting to unpruned grid for atomic number  78.
 Defaulting to unpruned grid for atomic number  78.
 Defaulting to unpruned grid for atomic number  78.
 Defaulting to unpruned grid for atomic number  78.
 E= -1229.15900645219    
 DIIS: error= 4.22D-02 at cycle   1 NSaved=   1.
 NSaved= 1 IEnMin= 1 EnMin= -1229.15900645219     IErMin= 1 ErrMin= 4.22D-02
 ErrMax= 4.22D-02  0.00D+00 EMaxC= 1.00D-01 BMatC= 7.20D-01 BMatP= 7.20D-01
 IDIUse=3 WtCom= 5.78D-01 WtEn= 4.22D-01
 Coeff-Com:  0.100D+01
 Coeff-En:   0.100D+01
 Coeff:      0.100D+01
 Gap=     0.237 Goal=   None    Shift=    0.000
 GapD=    0.237 DampG=1.000 DampE=0.250 DampFc=0.2500 IDamp=-1.
 Damping current iteration by 2.50D-01
 RMSDP=6.42D-03 MaxDP=4.37D-01              OVMax= 4.93D-01

 Cycle   2  Pass 1  IDiag  1:
 E= -1229.33416996624     Delta-E=       -0.175163514050 Rises=F Damp=T
 DIIS: error= 1.57D-02 at cycle   2 NSaved=   2.
 NSaved= 2 IEnMin= 2 EnMin= -1229.33416996624     IErMin= 2 ErrMin= 1.57D-02
 ErrMax= 1.57D-02  0.00D+00 EMaxC= 1.00D-01 BMatC= 9.76D-02 BMatP= 7.20D-01
 IDIUse=3 WtCom= 8.43D-01 WtEn= 1.57D-01
 Coeff-Com: -0.421D+00 0.142D+01
 Coeff-En:   0.000D+00 0.100D+01
 Coeff:     -0.355D+00 0.136D+01
 Gap=     0.127 Goal=   None    Shift=    0.000
 RMSDP=1.43D-03 MaxDP=1.24D-01 DE=-1.75D-01 OVMax= 3.89D-01

 Cycle   3  Pass 1  IDiag  1:
 E= -1229.60991616425     Delta-E=       -0.275746198011 Rises=F Damp=F
 DIIS: error= 6.45D-03 at cycle   3 NSaved=   3.
 NSaved= 3 IEnMin= 3 EnMin= -1229.60991616425     IErMin= 3 ErrMin= 6.45D-03
 ErrMax= 6.45D-03  0.00D+00 EMaxC= 1.00D-01 BMatC= 2.20D-02 BMatP= 9.76D-02
 IDIUse=3 WtCom= 9.35D-01 WtEn= 6.45D-02
 Coeff-Com: -0.210D+00 0.608D+00 0.602D+00
 Coeff-En:   0.000D+00 0.000D+00 0.100D+01
 Coeff:     -0.197D+00 0.569D+00 0.628D+00
 Gap=     0.123 Goal=   None    Shift=    0.000
 RMSDP=9.43D-04 MaxDP=2.88D-02 DE=-2.76D-01 OVMax= 8.85D-02

 Cycle   4  Pass 1  IDiag  1:
 E= -1229.62585393773     Delta-E=       -0.015937773480 Rises=F Damp=F
 DIIS: error= 4.28D-03 at cycle   4 NSaved=   4.
 NSaved= 4 IEnMin= 4 EnMin= -1229.62585393773     IErMin= 4 ErrMin= 4.28D-03
 ErrMax= 4.28D-03  0.00D+00 EMaxC= 1.00D-01 BMatC= 7.75D-03 BMatP= 2.20D-02
 IDIUse=3 WtCom= 9.57D-01 WtEn= 4.28D-02
 Coeff-Com: -0.642D-01 0.126D+00 0.375D+00 0.563D+00
 Coeff-En:   0.000D+00 0.000D+00 0.238D+00 0.762D+00
 Coeff:     -0.615D-01 0.121D+00 0.369D+00 0.572D+00
 Gap=     0.124 Goal=   None    Shift=    0.000
 RMSDP=3.05D-04 MaxDP=1.24D-02 DE=-1.59D-02 OVMax= 2.93D-02

 Cycle   5  Pass 1  IDiag  1:
 E= -1229.63214618022     Delta-E=       -0.006292242488 Rises=F Damp=F
 DIIS: error= 1.22D-03 at cycle   5 NSaved=   5.
 NSaved= 5 IEnMin= 5 EnMin= -1229.63214618022     IErMin= 5 ErrMin= 1.22D-03
 ErrMax= 1.22D-03  0.00D+00 EMaxC= 1.00D-01 BMatC= 4.70D-04 BMatP= 7.75D-03
 IDIUse=3 WtCom= 9.88D-01 WtEn= 1.22D-02
 Coeff-Com: -0.275D-01 0.490D-01 0.175D+00 0.313D+00 0.491D+00
 Coeff-En:   0.000D+00 0.000D+00 0.000D+00 0.000D+00 0.100D+01
 Coeff:     -0.271D-01 0.484D-01 0.173D+00 0.309D+00 0.497D+00
 Gap=     0.123 Goal=   None    Shift=    0.000
 RMSDP=7.87D-05 MaxDP=2.72D-03 DE=-6.29D-03 OVMax= 7.93D-03

 Cycle   6  Pass 1  IDiag  1:
 E= -1229.63247884740     Delta-E=       -0.000332667179 Rises=F Damp=F
 DIIS: error= 3.74D-04 at cycle   6 NSaved=   6.
 NSaved= 6 IEnMin= 6 EnMin= -1229.63247884740     IErMin= 6 ErrMin= 3.74D-04
 ErrMax= 3.74D-04  0.00D+00 EMaxC= 1.00D-01 BMatC= 6.47D-05 BMatP= 4.70D-04
 IDIUse=3 WtCom= 9.96D-01 WtEn= 3.74D-03
 Coeff-Com: -0.744D-03-0.156D-02 0.201D-01 0.608D-01 0.285D+00 0.636D+00
 Coeff-En:   0.000D+00 0.000D+00 0.000D+00 0.000D+00 0.932D-01 0.907D+00
 Coeff:     -0.741D-03-0.155D-02 0.200D-01 0.606D-01 0.284D+00 0.637D+00
 Gap=     0.123 Goal=   None    Shift=    0.000
 RMSDP=2.77D-05 MaxDP=1.48D-03 DE=-3.33D-04 OVMax= 2.10D-03

 Cycle   7  Pass 1  IDiag  1:
 E= -1229.63252667862     Delta-E=       -0.000047831219 Rises=F Damp=F
 DIIS: error= 6.91D-05 at cycle   7 NSaved=   7.
 NSaved= 7 IEnMin= 7 EnMin= -1229.63252667862     IErMin= 7 ErrMin= 6.91D-05
 ErrMax= 6.91D-05  0.00D+00 EMaxC= 1.00D-01 BMatC= 2.28D-06 BMatP= 6.47D-05
 IDIUse=1 WtCom= 1.00D+00 WtEn= 0.00D+00
 Coeff-Com:  0.834D-03-0.249D-02-0.656D-03 0.733D-02 0.846D-01 0.251D+00
 Coeff-Com:  0.659D+00
 Coeff:      0.834D-03-0.249D-02-0.656D-03 0.733D-02 0.846D-01 0.251D+00
 Coeff:      0.659D+00
 Gap=     0.124 Goal=   None    Shift=    0.000
 RMSDP=7.74D-06 MaxDP=3.23D-04 DE=-4.78D-05 OVMax= 6.11D-04

 Cycle   8  Pass 1  IDiag  1:
 E= -1229.63252882115     Delta-E=       -0.000002142534 Rises=F Damp=F
 DIIS: error= 2.09D-05 at cycle   8 NSaved=   8.
 NSaved= 8 IEnMin= 8 EnMin= -1229.63252882115     IErMin= 8 ErrMin= 2.09D-05
 ErrMax= 2.09D-05  0.00D+00 EMaxC= 1.00D-01 BMatC= 3.18D-07 BMatP= 2.28D-06
 IDIUse=1 WtCom= 1.00D+00 WtEn= 0.00D+00
 Coeff-Com:  0.564D-03-0.863D-03-0.343D-02-0.557D-02 0.374D-02 0.343D-01
 Coeff-Com:  0.277D+00 0.694D+00
 Coeff:      0.564D-03-0.863D-03-0.343D-02-0.557D-02 0.374D-02 0.343D-01
 Coeff:      0.277D+00 0.694D+00
 Gap=     0.124 Goal=   None    Shift=    0.000
 RMSDP=2.96D-06 MaxDP=1.14D-04 DE=-2.14D-06 OVMax= 2.81D-04

 Cycle   9  Pass 1  IDiag  1:
 E= -1229.63252909584     Delta-E=       -0.000000274683 Rises=F Damp=F
 DIIS: error= 1.25D-05 at cycle   9 NSaved=   9.
 NSaved= 9 IEnMin= 9 EnMin= -1229.63252909584     IErMin= 9 ErrMin= 1.25D-05
 ErrMax= 1.25D-05  0.00D+00 EMaxC= 1.00D-01 BMatC= 6.82D-08 BMatP= 3.18D-07
 IDIUse=1 WtCom= 1.00D+00 WtEn= 0.00D+00
 Coeff-Com:  0.159D-03-0.109D-03-0.166D-02-0.359D-02-0.578D-02-0.795D-02
 Coeff-Com:  0.768D-01 0.368D+00 0.575D+00
 Coeff:      0.159D-03-0.109D-03-0.166D-02-0.359D-02-0.578D-02-0.795D-02
 Coeff:      0.768D-01 0.368D+00 0.575D+00
 Gap=     0.124 Goal=   None    Shift=    0.000
 RMSDP=1.01D-06 MaxDP=3.64D-05 DE=-2.75D-07 OVMax= 9.61D-05

 Cycle  10  Pass 1  IDiag  1:
 E= -1229.63252915401     Delta-E=       -0.000000058172 Rises=F Damp=F
 DIIS: error= 3.98D-06 at cycle  10 NSaved=  10.
 NSaved=10 IEnMin=10 EnMin= -1229.63252915401     IErMin=10 ErrMin= 3.98D-06
 ErrMax= 3.98D-06  0.00D+00 EMaxC= 1.00D-01 BMatC= 6.60D-09 BMatP= 6.82D-08
 IDIUse=1 WtCom= 1.00D+00 WtEn= 0.00D+00
 Coeff-Com: -0.187D-04 0.675D-04-0.260D-03-0.794D-03-0.307D-02-0.920D-02
 Coeff-Com: -0.735D-02 0.585D-01 0.261D+00 0.701D+00
 Coeff:     -0.187D-04 0.675D-04-0.260D-03-0.794D-03-0.307D-02-0.920D-02
 Coeff:     -0.735D-02 0.585D-01 0.261D+00 0.701D+00
 Gap=     0.124 Goal=   None    Shift=    0.000
 RMSDP=4.34D-07 MaxDP=2.04D-05 DE=-5.82D-08 OVMax= 5.68D-05

 Cycle  11  Pass 1  IDiag  1:
 E= -1229.63252916083     Delta-E=       -0.000000006819 Rises=F Damp=F
 DIIS: error= 1.12D-06 at cycle  11 NSaved=  11.
 NSaved=11 IEnMin=11 EnMin= -1229.63252916083     IErMin=11 ErrMin= 1.12D-06
 ErrMax= 1.12D-06  0.00D+00 EMaxC= 1.00D-01 BMatC= 8.98D-10 BMatP= 6.60D-09
 IDIUse=1 WtCom= 1.00D+00 WtEn= 0.00D+00
 Coeff-Com: -0.208D-04 0.324D-04 0.463D-04 0.264D-04-0.693D-03-0.278D-02
 Coeff-Com: -0.133D-01-0.262D-01 0.332D-01 0.324D+00 0.686D+00
 Coeff:     -0.208D-04 0.324D-04 0.463D-04 0.264D-04-0.693D-03-0.278D-02
 Coeff:     -0.133D-01-0.262D-01 0.332D-01 0.324D+00 0.686D+00
 Gap=     0.124 Goal=   None    Shift=    0.000
 RMSDP=1.77D-07 MaxDP=7.46D-06 DE=-6.82D-09 OVMax= 1.98D-05

 Cycle  12  Pass 1  IDiag  1:
 E= -1229.63252916178     Delta-E=       -0.000000000955 Rises=F Damp=F
 DIIS: error= 3.73D-07 at cycle  12 NSaved=  12.
 NSaved=12 IEnMin=12 EnMin= -1229.63252916178     IErMin=12 ErrMin= 3.73D-07
 ErrMax= 3.73D-07  0.00D+00 EMaxC= 1.00D-01 BMatC= 7.45D-11 BMatP= 8.98D-10
 IDIUse=1 WtCom= 1.00D+00 WtEn= 0.00D+00
 Coeff-Com: -0.511D-05 0.550D-05 0.554D-04 0.945D-04 0.302D-04-0.794D-04
 Coeff-Com: -0.389D-02-0.155D-01-0.190D-01 0.430D-01 0.274D+00 0.721D+00
 Coeff:     -0.511D-05 0.550D-05 0.554D-04 0.945D-04 0.302D-04-0.794D-04
 Coeff:     -0.389D-02-0.155D-01-0.190D-01 0.430D-01 0.274D+00 0.721D+00
 Gap=     0.124 Goal=   None    Shift=    0.000
 RMSDP=5.26D-08 MaxDP=1.82D-06 DE=-9.55D-10 OVMax= 4.90D-06

 Cycle  13  Pass 1  IDiag  1:
 E= -1229.63252916186     Delta-E=       -0.000000000075 Rises=F Damp=F
 DIIS: error= 9.64D-08 at cycle  13 NSaved=  13.
 NSaved=13 IEnMin=13 EnMin= -1229.63252916186     IErMin=13 ErrMin= 9.64D-08
 ErrMax= 9.64D-08  0.00D+00 EMaxC= 1.00D-01 BMatC= 7.79D-12 BMatP= 7.45D-11
 IDIUse=1 WtCom= 1.00D+00 WtEn= 0.00D+00
 Coeff-Com: -0.496D-06-0.275D-06 0.272D-04 0.466D-04 0.511D-04 0.930D-04
 Coeff-Com: -0.109D-02-0.516D-02-0.102D-01 0.130D-02 0.889D-01 0.319D+00
 Coeff-Com:  0.608D+00
 Coeff:     -0.496D-06-0.275D-06 0.272D-04 0.466D-04 0.511D-04 0.930D-04
 Coeff:     -0.109D-02-0.516D-02-0.102D-01 0.130D-02 0.889D-01 0.319D+00
 Coeff:      0.608D+00
 Gap=     0.124 Goal=   None    Shift=    0.000
 RMSDP=1.42D-08 MaxDP=6.45D-07 DE=-7.50D-11 OVMax= 1.40D-06

 Cycle  14  Pass 1  IDiag  1:
 E= -1229.63252916188     Delta-E=       -0.000000000024 Rises=F Damp=F
 DIIS: error= 4.75D-08 at cycle  14 NSaved=  14.
 NSaved=14 IEnMin=14 EnMin= -1229.63252916188     IErMin=14 ErrMin= 4.75D-08
 ErrMax= 4.75D-08  0.00D+00 EMaxC= 1.00D-01 BMatC= 1.32D-12 BMatP= 7.79D-12
 IDIUse=1 WtCom= 1.00D+00 WtEn= 0.00D+00
 Coeff-Com:  0.567D-06-0.715D-06 0.574D-05 0.923D-05 0.222D-04 0.689D-04
 Coeff-Com:  0.772D-04-0.163D-03-0.269D-02-0.739D-02 0.225D-02 0.451D-01
 Coeff-Com:  0.323D+00 0.639D+00
 Coeff:      0.567D-06-0.715D-06 0.574D-05 0.923D-05 0.222D-04 0.689D-04
 Coeff:      0.772D-04-0.163D-03-0.269D-02-0.739D-02 0.225D-02 0.451D-01
 Coeff:      0.323D+00 0.639D+00
 Gap=     0.124 Goal=   None    Shift=    0.000
 RMSDP=6.68D-09 MaxDP=2.13D-07 DE=-2.36D-11 OVMax= 4.51D-07

 SCF Done:  E(RB3LYP) =  -1229.63252916     A.U. after   14 cycles
            NFock= 14  Conv=0.67D-08     -V/T= 2.0707
 KE= 1.148478546821D+03 PE=-3.920675966683D+03 EE= 1.024626731660D+03
 Leave Link  502 at Wed Dec 23 12:33:13 2020, MaxMem=  4026531840 cpu:       137.3
 (Enter /home/scicons/Gaussian09D/Gaussian09.D01/l801.exe)
 DoSCS=F DFT=T ScalE2(SS,OS)=  1.000000  1.000000
 Range of M.O.s used for correlation:     1   255
 NBasis=   255 NAE=    41 NBE=    41 NFC=     0 NFV=     0
 NROrb=    255 NOA=    41 NOB=    41 NVA=   214 NVB=   214
 Leave Link  801 at Wed Dec 23 12:33:14 2020, MaxMem=  4026531840 cpu:         0.3
 (Enter /home/scicons/Gaussian09D/Gaussian09.D01/l1101.exe)
 Using compressed storage, NAtomX=    14.
 Will process     15 centers per pass.
   1 Symmetry operations used in ECPInt.
 ECPInt:  NShTT=    5565 NPrTT=   17197 LenC2=    5365 LenP2D=   12655.
 LDataN:  DoStor=T MaxTD1= 9 Len=  602
 R6Disp: Adding Grimme-D3(BJ) dispersion energy 1st derivatives to the gradient.
 Leave Link 1101 at Wed Dec 23 12:33:15 2020, MaxMem=  4026531840 cpu:        26.2
 (Enter /home/scicons/Gaussian09D/Gaussian09.D01/l1102.exe)
 Symmetrizing basis deriv contribution to polar:
 IMax=3 JMax=2 DiffMx= 0.00D+00
 Leave Link 1102 at Wed Dec 23 12:33:15 2020, MaxMem=  4026531840 cpu:         0.5
 (Enter /home/scicons/Gaussian09D/Gaussian09.D01/l1110.exe)
 Forming Gx(P) for the SCF density, NAtomX=    14.
 Integral derivatives from FoFJK, PRISM(SPDF).
 Do as many integral derivatives as possible in FoFJK.
 G2DrvN: MDV=    4026531624.
 G2DrvN: will do    15 centers at a time, making    1 passes.
 Calling FoFCou, ICntrl=  3107 FMM=F I1Cent=   0 AccDes= 0.00D+00.
 FoFJK:  IHMeth= 1 ICntrl=    3107 DoSepK=F KAlg= 0 I1Cent=   0 FoldK=F
 IRaf=         0 NMat=   1 IRICut=       1 DoRegI=T DoRafI=F ISym2E= 0.
 FoFCou: FMM=F IPFlag=           0 FMFlag=      100000 FMFlg1=           0
         NFxFlg=           0 DoJE=F BraDBF=F KetDBF=F FulRan=T
         wScrn=  0.000000 ICntrl=    3107 IOpCl=  0 I1Cent=           0 NGrid=           0
         NMat0=    1 NMatS0=      1 NMatT0=    0 NMatD0=    1 NMtDS0=    0 NMtDT0=    0
 Symmetry not used in FoFCou.
 Defaulting to unpruned grid for atomic number  78.
 Defaulting to unpruned grid for atomic number  78.
 Defaulting to unpruned grid for atomic number  78.
 Defaulting to unpruned grid for atomic number  78.
 Defaulting to unpruned grid for atomic number  78.
 Defaulting to unpruned grid for atomic number  78.
 Defaulting to unpruned grid for atomic number  78.
 Defaulting to unpruned grid for atomic number  78.
 Defaulting to unpruned grid for atomic number  78.
 Defaulting to unpruned grid for atomic number  78.
 Defaulting to unpruned grid for atomic number  78.
 Defaulting to unpruned grid for atomic number  78.
 Defaulting to unpruned grid for atomic number  78.
 Defaulting to unpruned grid for atomic number  78.
 Defaulting to unpruned grid for atomic number  78.
 Defaulting to unpruned grid for atomic number  78.
 Defaulting to unpruned grid for atomic number  78.
 Defaulting to unpruned grid for atomic number  78.
 Defaulting to unpruned grid for atomic number  78.
 Defaulting to unpruned grid for atomic number  78.
 End of G2Drv F.D. properties file   721 does not exist.
 End of G2Drv F.D. properties file   722 does not exist.
 End of G2Drv F.D. properties file   788 does not exist.
 Leave Link 1110 at Wed Dec 23 12:33:29 2020, MaxMem=  4026531840 cpu:       281.7
 (Enter /home/scicons/Gaussian09D/Gaussian09.D01/l1002.exe)
 Minotr:  Closed shell wavefunction.
          IDoAtm=11111111111111
          Direct CPHF calculation.
          Differentiating once with respect to electric field.
                with respect to dipole field.
          Differentiating once with respect to nuclear coordinates.
          Requested convergence is 1.0D-08 RMS, and 1.0D-07 maximum.
          Secondary convergence is 1.0D-12 RMS, and 1.0D-12 maximum.
          NewPWx=T KeepS1=F KeepF1=F KeepIn=T MapXYZ=F SortEE=F KeepMc=T.
          MDV=    4026531441 using IRadAn=       2.
 Defaulting to unpruned grid for atomic number  78.
 Generate precomputed XC quadrature information.
 Keep R1 ints in memory in canonical form, NReq=544526104.
 FoFCou: FMM=F IPFlag=           0 FMFlag=           0 FMFlg1=           0
         NFxFlg=           0 DoJE=F BraDBF=F KetDBF=F FulRan=T
         wScrn=  0.000000 ICntrl=     600 IOpCl=  0 I1Cent=           0 NGrid=           0
         NMat0=    1 NMatS0=  32640 NMatT0=    0 NMatD0=    1 NMtDS0=    0 NMtDT0=    0
 Symmetry not used in FoFCou.
          Solving linear equations simultaneously, MaxMat=       0.
 Defaulting to unpruned grid for atomic number  78.
 Defaulting to unpruned grid for atomic number  78.
 Defaulting to unpruned grid for atomic number  78.
 Defaulting to unpruned grid for atomic number  78.
 Defaulting to unpruned grid for atomic number  78.
 Defaulting to unpruned grid for atomic number  78.
 Defaulting to unpruned grid for atomic number  78.
 Defaulting to unpruned grid for atomic number  78.
 Defaulting to unpruned grid for atomic number  78.
 Defaulting to unpruned grid for atomic number  78.
 Defaulting to unpruned grid for atomic number  78.
 Defaulting to unpruned grid for atomic number  78.
 Defaulting to unpruned grid for atomic number  78.
 Defaulting to unpruned grid for atomic number  78.
 Defaulting to unpruned grid for atomic number  78.
 Defaulting to unpruned grid for atomic number  78.
 Defaulting to unpruned grid for atomic number  78.
 Defaulting to unpruned grid for atomic number  78.
 Defaulting to unpruned grid for atomic number  78.
 Defaulting to unpruned grid for atomic number  78.
          There are    45 degrees of freedom in the 1st order CPHF.  IDoFFX=6 NUNeed=     3.
     42 vectors produced by pass  0 Test12= 1.95D-14 2.22D-09 XBig12= 1.54D+02 5.23D+00.
 AX will form    42 AO Fock derivatives at one time.
     42 vectors produced by pass  1 Test12= 1.95D-14 2.22D-09 XBig12= 2.69D+01 1.20D+00.
     42 vectors produced by pass  2 Test12= 1.95D-14 2.22D-09 XBig12= 5.19D-01 1.07D-01.
     42 vectors produced by pass  3 Test12= 1.95D-14 2.22D-09 XBig12= 6.19D-03 1.67D-02.
     42 vectors produced by pass  4 Test12= 1.95D-14 2.22D-09 XBig12= 4.65D-05 1.25D-03.
     42 vectors produced by pass  5 Test12= 1.95D-14 2.22D-09 XBig12= 1.84D-07 6.36D-05.
     14 vectors produced by pass  6 Test12= 1.95D-14 2.22D-09 XBig12= 3.12D-10 2.59D-06.
      3 vectors produced by pass  7 Test12= 1.95D-14 2.22D-09 XBig12= 4.40D-13 8.03D-08.
      2 vectors produced by pass  8 Test12= 1.95D-14 2.22D-09 XBig12= 7.04D-16 2.65D-09.
 InvSVY:  IOpt=1 It=  1 EMax= 8.88D-15
 Solved reduced A of dimension   271 with    45 vectors.
 FullF1:  Do perturbations    1 to     3.
 Isotropic polarizability for W=    0.000000       96.69 Bohr**3.
 End of Minotr F.D. properties file   721 does not exist.
 End of Minotr F.D. properties file   722 does not exist.
 End of Minotr F.D. properties file   788 does not exist.
 Leave Link 1002 at Wed Dec 23 12:33:52 2020, MaxMem=  4026531840 cpu:       439.1
 (Enter /home/scicons/Gaussian09D/Gaussian09.D01/l601.exe)
 Copying SCF densities to generalized density rwf, IOpCl= 0 IROHF=0.

 **********************************************************************

            Population analysis using the SCF density.

 **********************************************************************

 Orbital symmetries:
       Occupied  (A) (A) (A) (A) (A) (A) (A) (A) (A) (A) (A) (A)
                 (A) (A) (A) (A) (A) (A) (A) (A) (A) (A) (A) (A)
                 (A) (A) (A) (A) (A) (A) (A) (A) (A) (A) (A) (A)
                 (A) (A) (A) (A) (A)
       Virtual   (A) (A) (A) (A) (A) (A) (A) (A) (A) (A) (A) (A)
                 (A) (A) (A) (A) (A) (A) (A) (A) (A) (A) (A) (A)
                 (A) (A) (A) (A) (A) (A) (A) (A) (A) (A) (A) (A)
                 (A) (A) (A) (A) (A) (A) (A) (A) (A) (A) (A) (A)
                 (A) (A) (A) (A) (A) (A) (A) (A) (A) (A) (A) (A)
                 (A) (A) (A) (A) (A) (A) (A) (A) (A) (A) (A) (A)
                 (A) (A) (A) (A) (A) (A) (A) (A) (A) (A) (A) (A)
                 (A) (A) (A) (A) (A) (A) (A) (A) (A) (A) (A) (A)
                 (A) (A) (A) (A) (A) (A) (A) (A) (A) (A) (A) (A)
                 (A) (A) (A) (A) (A) (A) (A) (A) (A) (A) (A) (A)
                 (A) (A) (A) (A) (A) (A) (A) (A) (A) (A) (A) (A)
                 (A) (A) (A) (A) (A) (A) (A) (A) (A) (A) (A) (A)
                 (A) (A) (A) (A) (A) (A) (A) (A) (A) (A) (A) (A)
                 (A) (A) (A) (A) (A) (A) (A) (A) (A) (A) (A) (A)
                 (A) (A) (A) (A) (A) (A) (A) (A) (A) (A) (A) (A)
                 (A) (A) (A) (A) (A) (A) (A) (A) (A) (A) (A) (A)
                 (A) (A) (A) (A) (A) (A) (A) (A) (A) (A) (A) (A)
                 (A) (A) (A) (A) (A) (A) (A) (A) (A) (A)
 The electronic state is 1-A.
 Alpha  occ. eigenvalues -- -101.47582-101.42236 -19.15923 -14.40587 -14.39649
 Alpha  occ. eigenvalues --   -9.40695  -9.35417  -7.16695  -7.16101  -7.16052
 Alpha  occ. eigenvalues --   -7.11130  -7.10960  -7.10919  -3.93517  -2.19862
 Alpha  occ. eigenvalues --   -2.18204  -2.14921  -1.03948  -0.95500  -0.94299
 Alpha  occ. eigenvalues --   -0.76260  -0.70903  -0.56549  -0.55909  -0.55546
 Alpha  occ. eigenvalues --   -0.54898  -0.54777  -0.48818  -0.43041  -0.40036
 Alpha  occ. eigenvalues --   -0.38682  -0.34782  -0.32279  -0.31449  -0.27563
 Alpha  occ. eigenvalues --   -0.27395  -0.26138  -0.25435  -0.24131  -0.23482
 Alpha  occ. eigenvalues --   -0.20408
 Alpha virt. eigenvalues --   -0.08053  -0.03123   0.00359   0.02881   0.05792
 Alpha virt. eigenvalues --    0.06866   0.07444   0.07883   0.08827   0.10240
 Alpha virt. eigenvalues --    0.12468   0.13958   0.17843   0.18988   0.24837
 Alpha virt. eigenvalues --    0.25681   0.26838   0.28585   0.29896   0.31959
 Alpha virt. eigenvalues --    0.33638   0.33895   0.34990   0.35663   0.36351
 Alpha virt. eigenvalues --    0.37420   0.38072   0.38628   0.39126   0.41493
 Alpha virt. eigenvalues --    0.42056   0.42532   0.43331   0.44013   0.44690
 Alpha virt. eigenvalues --    0.46422   0.47009   0.47620   0.48565   0.49977
 Alpha virt. eigenvalues --    0.50552   0.51920   0.52217   0.52656   0.54065
 Alpha virt. eigenvalues --    0.56956   0.58144   0.61455   0.62323   0.64836
 Alpha virt. eigenvalues --    0.65096   0.66449   0.69779   0.72481   0.77039
 Alpha virt. eigenvalues --    0.80841   0.84464   0.87052   0.88935   0.94523
 Alpha virt. eigenvalues --    1.01247   1.02854   1.08512   1.11165   1.16708
 Alpha virt. eigenvalues --    1.18320   1.19578   1.21899   1.24367   1.28190
 Alpha virt. eigenvalues --    1.30194   1.30925   1.36832   1.38465   1.40177
 Alpha virt. eigenvalues --    1.41385   1.44526   1.45783   1.47499   1.48243
 Alpha virt. eigenvalues --    1.49587   1.51639   1.52997   1.53397   1.54969
 Alpha virt. eigenvalues --    1.56099   1.58162   1.62168   1.69460   1.73105
 Alpha virt. eigenvalues --    1.74070   1.74498   1.75475   1.75892   1.79060
 Alpha virt. eigenvalues --    1.81577   1.83648   1.84562   1.86202   1.86977
 Alpha virt. eigenvalues --    1.89649   1.90519   1.91838   1.95906   1.97252
 Alpha virt. eigenvalues --    1.98264   2.00822   2.04065   2.05719   2.07319
 Alpha virt. eigenvalues --    2.09262   2.11135   2.11329   2.12635   2.12881
 Alpha virt. eigenvalues --    2.13067   2.13466   2.13707   2.16059   2.16969
 Alpha virt. eigenvalues --    2.17245   2.17274   2.18565   2.19448   2.22373
 Alpha virt. eigenvalues --    2.26034   2.27960   2.28359   2.29683   2.30449
 Alpha virt. eigenvalues --    2.30991   2.33073   2.35237   2.35471   2.38038
 Alpha virt. eigenvalues --    2.38811   2.40056   2.40851   2.43069   2.43514
 Alpha virt. eigenvalues --    2.45616   2.45709   2.49206   2.50254   2.51840
 Alpha virt. eigenvalues --    2.52696   2.60281   2.66754   2.66959   2.72636
 Alpha virt. eigenvalues --    2.78632   2.92202   3.02551   3.03936   3.12172
 Alpha virt. eigenvalues --    3.13985   3.14209   3.15102   3.16012   3.20703
 Alpha virt. eigenvalues --    3.63091   3.89820   4.01772   4.09343   4.21539
 Alpha virt. eigenvalues --    4.22795   4.23956   4.24325   4.32596   4.33827
 Alpha virt. eigenvalues --    4.56106   4.57470   4.61948   4.64010   4.77393
 Alpha virt. eigenvalues --    4.79059   4.79511   4.81209   4.94621   5.00649
 Alpha virt. eigenvalues --    5.06770   5.17303   5.26875   5.27638   5.28401
 Alpha virt. eigenvalues --    5.28662   5.35117   5.39476   5.43730   5.66064
 Alpha virt. eigenvalues --    5.67650   5.94646   6.19593   6.32307   6.37422
 Alpha virt. eigenvalues --    6.43193   6.88017   6.97676  10.72749  10.76344
 Alpha virt. eigenvalues --   10.78667  10.80346  10.83755  10.88496  24.80768
 Alpha virt. eigenvalues --   24.83613  26.82333  30.10839  31.38346  31.55937
 Alpha virt. eigenvalues --   31.62490  43.40318  52.02584 282.32910
          Condensed to atoms (all electrons):
               1          2          3          4          5          6
     1  Pt  17.252629   0.123028  -0.022123  -0.019997   0.174682   0.027840
     2  N    0.123028   6.372594   0.360834   0.354207  -0.028333  -0.005970
     3  H   -0.022123   0.360834   0.419523  -0.020954   0.000360  -0.000820
     4  H   -0.019997   0.354207  -0.020954   0.400173   0.000166   0.000167
     5  Cl   0.174682  -0.028333   0.000360   0.000166  17.321531  -0.001348
     6  O    0.027840  -0.005970  -0.000820   0.000167  -0.001348   8.140535
     7  H   -0.031719   0.001842   0.000700   0.000354   0.000328   0.244590
     8  H   -0.010117   0.000412  -0.000030  -0.000021   0.000020   0.279023
     9  Cl   0.122025  -0.007228   0.000152   0.012230  -0.004004  -0.087535
    10  N    0.109634  -0.010912   0.000263   0.000366  -0.032054  -0.006889
    11  H   -0.021567   0.000311   0.000023  -0.000226   0.000416  -0.000890
    12  H   -0.024866   0.000351  -0.000123   0.000046   0.000361  -0.000410
    13  H   -0.022514   0.349122  -0.020754  -0.019196   0.016559   0.000240
    14  H   -0.021872   0.000458   0.000025   0.000006   0.019135   0.000025
               7          8          9         10         11         12
     1  Pt  -0.031719  -0.010117   0.122025   0.109634  -0.021567  -0.024866
     2  N    0.001842   0.000412  -0.007228  -0.010912   0.000311   0.000351
     3  H    0.000700  -0.000030   0.000152   0.000263   0.000023  -0.000123
     4  H    0.000354  -0.000021   0.012230   0.000366  -0.000226   0.000046
     5  Cl   0.000328   0.000020  -0.004004  -0.032054   0.000416   0.000361
     6  O    0.244590   0.279023  -0.087535  -0.006889  -0.000890  -0.000410
     7  H    0.378134  -0.007728   0.081823   0.001455   0.000805   0.000259
     8  H   -0.007728   0.417978   0.006932   0.001076   0.000043   0.002945
     9  Cl   0.081823   0.006932  17.482029  -0.007256   0.012019  -0.000095
    10  N    0.001455   0.001076  -0.007256   6.397706   0.353112   0.355178
    11  H    0.000805   0.000043   0.012019   0.353112   0.405995  -0.024431
    12  H    0.000259   0.002945  -0.000095   0.355178  -0.024431   0.454695
    13  H   -0.000168   0.000047   0.000936   0.000527   0.000015   0.000005
    14  H   -0.000087  -0.000174   0.000552   0.349809  -0.019139  -0.020440
              13         14
     1  Pt  -0.022514  -0.021872
     2  N    0.349122   0.000458
     3  H   -0.020754   0.000025
     4  H   -0.019196   0.000006
     5  Cl   0.016559   0.019135
     6  O    0.000240   0.000025
     7  H   -0.000168  -0.000087
     8  H    0.000047  -0.000174
     9  Cl   0.000936   0.000552
    10  N    0.000527   0.349809
    11  H    0.000015  -0.019139
    12  H    0.000005  -0.020440
    13  H    0.418172  -0.000164
    14  H   -0.000164   0.406933
 Mulliken charges:
               1
     1  Pt   0.364938
     2  N   -0.510716
     3  H    0.282922
     4  H    0.292679
     5  Cl  -0.467818
     6  O   -0.588556
     7  H    0.329410
     8  H    0.309594
     9  Cl  -0.612582
    10  N   -0.512017
    11  H    0.293514
    12  H    0.256526
    13  H    0.277173
    14  H    0.284932
 Sum of Mulliken charges =   0.00000
 Mulliken charges with hydrogens summed into heavy atoms:
               1
     1  Pt   0.364938
     2  N    0.342058
     5  Cl  -0.467818
     6  O    0.050448
     9  Cl  -0.612582
    10  N    0.322955
 APT charges:
               1
     1  Pt   0.845913
     2  N   -0.235255
     3  H    0.173560
     4  H    0.191018
     5  Cl  -0.561274
     6  O   -0.639959
     7  H    0.334773
     8  H    0.237741
     9  Cl  -0.813899
    10  N   -0.228081
    11  H    0.184506
    12  H    0.152756
    13  H    0.174671
    14  H    0.183530
 Sum of APT charges =   0.00000
 APT charges with hydrogens summed into heavy atoms:
               1
     1  Pt   0.845913
     2  N    0.303993
     5  Cl  -0.561274
     6  O   -0.067446
     9  Cl  -0.813899
    10  N    0.292711
 Electronic spatial extent (au):  <R**2>=           1517.7006
 Charge=              0.0000 electrons
 Dipole moment (field-independent basis, Debye):
    X=              1.0736    Y=              1.7640    Z=              3.9895  Tot=              4.4922
 Quadrupole moment (field-independent basis, Debye-Ang):
   XX=            -89.9719   YY=            -42.6427   ZZ=            -73.6680
   XY=             -2.1482   XZ=             -6.5997   YZ=              1.0129
 Traceless Quadrupole moment (field-independent basis, Debye-Ang):
   XX=            -21.2110   YY=             26.1182   ZZ=             -4.9072
   XY=             -2.1482   XZ=             -6.5997   YZ=              1.0129
 Octapole moment (field-independent basis, Debye-Ang**2):
  XXX=             28.2739  YYY=              4.9360  ZZZ=             26.5076  XYY=              7.9620
  XXY=              7.6781  XXZ=             27.5457  XZZ=             12.3602  YZZ=              8.3196
  YYZ=             13.9053  XYZ=             -5.7555
 Hexadecapole moment (field-independent basis, Debye-Ang**3):
 XXXX=          -1265.7406 YYYY=           -309.4302 ZZZZ=           -345.8721 XXXY=            -11.0745
 XXXZ=            -53.7590 YYYX=             -1.2595 YYYZ=             -4.1366 ZZZX=            -18.0961
 ZZZY=             12.3230 XXYY=           -250.6779 XXZZ=           -273.1321 YYZZ=           -105.1336
 XXYZ=              6.0429 YYXZ=            -11.7125 ZZXY=            -11.8966
 N-N= 5.179381590399D+02 E-N=-3.920675973129D+03  KE= 1.148478546821D+03
  Exact polarizability: 118.771   0.041  90.037   2.289   1.723  81.270
 Approx polarizability: 184.606   0.601 133.165   5.760   3.564 135.062
 No NMR shielding tensors so no spin-rotation constants.
 Leave Link  601 at Wed Dec 23 12:33:52 2020, MaxMem=  4026531840 cpu:         3.5
 (Enter /home/scicons/Gaussian09D/Gaussian09.D01/l701.exe)
 Compute integral second derivatives.
 ... and contract with generalized density number  0.
 R6Disp: Adding Grimme-D3(BJ) dispersion energy 2nd derivatives to the Hessian.
   1 Symmetry operations used in ECPInt.
 ECPInt:  NShTT=    5565 NPrTT=   17197 LenC2=    5365 LenP2D=   12655.
 LDataN:  DoStor=T MaxTD1=10 Len=  848
 Leave Link  701 at Wed Dec 23 12:33:57 2020, MaxMem=  4026531840 cpu:        86.0
 (Enter /home/scicons/Gaussian09D/Gaussian09.D01/l702.exe)
 L702 exits ... SP integral derivatives will be done elsewhere.
 Leave Link  702 at Wed Dec 23 12:33:57 2020, MaxMem=  4026531840 cpu:         0.2
 (Enter /home/scicons/Gaussian09D/Gaussian09.D01/l703.exe)
 Compute integral second derivatives, UseDBF=F ICtDFT=           0.
 Integral derivatives from FoFJK, PRISM(SPDF).
 Calling FoFJK, ICntrl=    100127 FMM=F ISym2X=0 I1Cent= 0 IOpClX= 0 NMat=1 NMatS=1 NMatT=0.
 FoFJK:  IHMeth= 1 ICntrl=  100127 DoSepK=F KAlg= 0 I1Cent=   0 FoldK=F
 IRaf=         0 NMat=   1 IRICut=       1 DoRegI=T DoRafI=F ISym2E= 0.
 FoFCou: FMM=F IPFlag=           0 FMFlag=      100000 FMFlg1=         800
         NFxFlg=           0 DoJE=F BraDBF=F KetDBF=F FulRan=T
         wScrn=  0.000000 ICntrl=  100127 IOpCl=  0 I1Cent=           0 NGrid=           0
         NMat0=    1 NMatS0=      1 NMatT0=    0 NMatD0=    1 NMtDS0=    0 NMtDT0=    0
 Symmetry not used in FoFCou.
 Defaulting to unpruned grid for atomic number  78.
 Defaulting to unpruned grid for atomic number  78.
 Defaulting to unpruned grid for atomic number  78.
 Defaulting to unpruned grid for atomic number  78.
 Defaulting to unpruned grid for atomic number  78.
 Defaulting to unpruned grid for atomic number  78.
 Defaulting to unpruned grid for atomic number  78.
 Defaulting to unpruned grid for atomic number  78.
 Defaulting to unpruned grid for atomic number  78.
 Defaulting to unpruned grid for atomic number  78.
 Defaulting to unpruned grid for atomic number  78.
 Defaulting to unpruned grid for atomic number  78.
 Defaulting to unpruned grid for atomic number  78.
 Defaulting to unpruned grid for atomic number  78.
 Defaulting to unpruned grid for atomic number  78.
 Defaulting to unpruned grid for atomic number  78.
 Defaulting to unpruned grid for atomic number  78.
 Defaulting to unpruned grid for atomic number  78.
 Defaulting to unpruned grid for atomic number  78.
 Defaulting to unpruned grid for atomic number  78.
 Leave Link  703 at Wed Dec 23 12:34:20 2020, MaxMem=  4026531840 cpu:       470.3
 (Enter /home/scicons/Gaussian09D/Gaussian09.D01/l716.exe)
 Dipole        = 4.22379138D-01 6.94003494D-01 1.56958672D+00
 Polarizability= 1.18771154D+02 4.11715183D-02 9.00371134D+01
                 2.28912796D+00 1.72287423D+00 8.12697805D+01
 ***** Axes restored to original set *****
 -------------------------------------------------------------------
 Center     Atomic                   Forces (Hartrees/Bohr)
 Number     Number              X              Y              Z
 -------------------------------------------------------------------
      1       78          -0.000501805   -0.003254944   -0.006578520
      2        7           0.000586488   -0.002989556    0.000262939
      3        1          -0.000623447    0.002242903    0.000069300
      4        1          -0.002254401    0.002740701   -0.001157173
      5       17          -0.001791699    0.000691581    0.002184523
      6        8           0.000045146    0.005357581    0.005375053
      7        1          -0.002969685   -0.001954970   -0.005851655
      8        1          -0.002116186   -0.004950902    0.001895508
      9       17           0.006380411    0.001859583    0.007028464
     10        7          -0.000986584    0.003644717    0.000129880
     11        1          -0.002055136   -0.003037115   -0.001620431
     12        1           0.001758976   -0.000060110   -0.001163472
     13        1           0.002247124    0.002514780   -0.000609733
     14        1           0.002280800   -0.002804247    0.000035317
 -------------------------------------------------------------------
 Cartesian Forces:  Max     0.007028464 RMS     0.003013984
 FormGI is forming the generalized inverse of G from B-inverse, IUseBI=4.
 Leave Link  716 at Wed Dec 23 12:34:20 2020, MaxMem=  4026531840 cpu:         0.4
 (Enter /home/scicons/Gaussian09D/Gaussian09.D01/l103.exe)

 GradGradGradGradGradGradGradGradGradGradGradGradGradGradGradGradGradGrad
 Berny optimization.
 Red2BG is reusing G-inverse.
 Internal  Forces:  Max     0.024110979 RMS     0.004106013
 Search for a saddle point.
 Step number   1 out of a maximum of   84
 All quantities printed in internal units (Hartrees-Bohrs-Radians)
 Swapping is turned off.
 Second derivative matrix not updated -- analytic derivatives used.
 ITU=  0
     Eigenvalues ---   -0.04515  -0.00194   0.00045   0.00117   0.00230
     Eigenvalues ---    0.00373   0.00653   0.01172   0.01814   0.01898
     Eigenvalues ---    0.02096   0.02523   0.02582   0.03816   0.04378
     Eigenvalues ---    0.04931   0.06276   0.06394   0.07137   0.08322
     Eigenvalues ---    0.08552   0.09123   0.11244   0.11631   0.11760
     Eigenvalues ---    0.12985   0.17412   0.39459   0.41678   0.43439
     Eigenvalues ---    0.43483   0.43629   0.43822   0.44114   0.46048
     Eigenvalues ---    0.49069
 Eigenvectors required to have negative eigenvalues:
                          R3        A3        A15       D23       D22
   1                   -0.59781   0.32103   0.24831  -0.18086  -0.17691
                          D1        A23       A12       D24       D2
   1                    0.17444  -0.17169   0.17059  -0.17046   0.16700
 Eigenvalue     2 is  -1.94D-03 should be greater than     0.000000 Eigenvector:
                          D32       D20       D31       D16       D30
   1                    0.35610   0.33200  -0.32758   0.32298  -0.29486
                          D21       D17       R11       D29       D10
   1                    0.28916   0.28013  -0.26443   0.14991  -0.13318
 RFO step:  Lambda0=3.431253511D-03 Lambda=-6.82990276D-03.
 Linear search not attempted -- option 19 set.
 Maximum step size (   0.300) exceeded in Quadratic search.
    -- Step size scaled by   0.496
 Iteration  1 RMS(Cart)=  0.08512730 RMS(Int)=  0.00567228
 Iteration  2 RMS(Cart)=  0.00593758 RMS(Int)=  0.00121800
 Iteration  3 RMS(Cart)=  0.00002599 RMS(Int)=  0.00121794
 Iteration  4 RMS(Cart)=  0.00000001 RMS(Int)=  0.00121794
 ITry= 1 IFail=0 DXMaxC= 5.66D-01 DCOld= 1.00D+10 DXMaxT= 3.00D-01 DXLimC= 3.00D+00 Rises=F
 Variable       Old X    -DE/DX   Delta X   Delta X   Delta X     New X
                                 (Linear)    (Quad)   (Total)
    R1        3.88575  -0.00460   0.00000  -0.00105  -0.00106   3.88469
    R2        4.37559  -0.00231   0.00000  -0.01295  -0.01295   4.36264
    R3        4.63208   0.00141   0.00000  -0.07130  -0.07113   4.56095
    R4        3.89293  -0.00394   0.00000  -0.01781  -0.01681   3.87612
    R5        1.92321  -0.00035   0.00000  -0.00095  -0.00095   1.92227
    R6        1.92359   0.00122   0.00000  -0.00086  -0.00086   1.92273
    R7        1.92165   0.00100   0.00000   0.00078   0.00078   1.92243
    R8        1.86022  -0.00310   0.00000   0.01429   0.01429   1.87451
    R9        1.82850  -0.00362   0.00000  -0.00226  -0.00264   1.82586
   R10        4.00063  -0.00737   0.00000  -0.13210  -0.13210   3.86853
   R11        4.85211   0.00341   0.00000   0.21655   0.21590   5.06801
   R12        1.92311   0.00156   0.00000   0.00352   0.00352   1.92663
   R13        1.92365   0.00115   0.00000  -0.00243  -0.00277   1.92088
   R14        1.92282   0.00108   0.00000  -0.00062  -0.00062   1.92220
    A1        1.58663  -0.00028   0.00000  -0.00959  -0.00735   1.57928
    A2        1.53573   0.00141   0.00000  -0.02852  -0.02700   1.50874
    A3        2.68058  -0.00176   0.00000   0.05398   0.05161   2.73219
    A4        1.57884  -0.00014   0.00000   0.01485   0.01217   1.59102
    A5        1.59235  -0.00023   0.00000   0.03586   0.03369   1.62604
    A6        1.94428  -0.00172   0.00000  -0.00380  -0.00381   1.94047
    A7        1.90374  -0.00328   0.00000   0.00115   0.00115   1.90489
    A8        1.96183  -0.00303   0.00000  -0.02332  -0.02345   1.93838
    A9        1.88037   0.00218   0.00000   0.00929   0.00938   1.88975
   A10        1.88385   0.00268   0.00000   0.01295   0.01283   1.89668
   A11        1.88720   0.00359   0.00000   0.00533   0.00523   1.89243
   A12        1.54372  -0.01460   0.00000  -0.00334  -0.00396   1.53976
   A13        1.84920   0.00346   0.00000   0.03885   0.03664   1.88583
   A14        1.84231   0.00198   0.00000  -0.00558  -0.00410   1.83821
   A15        2.47821  -0.02411   0.00000   0.03077   0.03077   2.50898
   A16        1.95466  -0.00355   0.00000  -0.06325  -0.06615   1.88851
   A17        1.92351  -0.00254   0.00000  -0.05906  -0.05956   1.86395
   A18        1.94454  -0.00007   0.00000   0.00546   0.00695   1.95149
   A19        1.95011  -0.00271   0.00000   0.00175   0.00131   1.95141
   A20        1.87946   0.00164   0.00000   0.01846   0.01736   1.89681
   A21        1.88499   0.00255   0.00000   0.02411   0.02388   1.90888
   A22        1.87857   0.00146   0.00000   0.01215   0.01177   1.89033
   A23        1.85218   0.00057   0.00000  -0.02314  -0.02542   1.82677
   A24        3.16547  -0.00042   0.00000   0.00525   0.00483   3.17029
   A25        3.12386  -0.00170   0.00000  -0.03048  -0.03199   3.09186
    D1        2.22892  -0.00080   0.00000   0.02428   0.02413   2.25306
    D2       -1.98082  -0.00124   0.00000   0.03417   0.03413  -1.94669
    D3        0.11206  -0.00087   0.00000   0.02680   0.02670   0.13876
    D4       -0.45190   0.00101   0.00000  -0.03122  -0.03045  -0.48235
    D5        1.62154   0.00056   0.00000  -0.02133  -0.02045   1.60108
    D6       -2.56877   0.00093   0.00000  -0.02870  -0.02788  -2.59665
    D7       -1.87649  -0.00028   0.00000   0.01466   0.01478  -1.86171
    D8        0.20129   0.00022   0.00000   0.00120   0.00034   0.20162
    D9        2.31305   0.00056   0.00000   0.03180   0.03209   2.34514
   D10        0.18862  -0.00063   0.00000   0.02122   0.02116   0.20978
   D11        2.26639  -0.00012   0.00000   0.00776   0.00672   2.27311
   D12       -1.90503   0.00021   0.00000   0.03836   0.03847  -1.86656
   D13        2.28086  -0.00082   0.00000   0.00678   0.00680   2.28766
   D14       -1.92456  -0.00031   0.00000  -0.00669  -0.00764  -1.93220
   D15        0.18721   0.00003   0.00000   0.02392   0.02411   0.21132
   D16       -1.57680   0.00087   0.00000  -0.09530  -0.09612  -1.67292
   D17        2.86085   0.00286   0.00000  -0.09056  -0.09263   2.76822
   D18       -3.11257  -0.00152   0.00000  -0.01052  -0.00899  -3.12156
   D19        1.32508   0.00046   0.00000  -0.00577  -0.00550   1.31958
   D20        1.53828  -0.00049   0.00000  -0.12421  -0.12672   1.41156
   D21       -0.30725   0.00149   0.00000  -0.11947  -0.12323  -0.43048
   D22        2.17028   0.00066   0.00000  -0.01159  -0.01218   2.15810
   D23       -2.02764   0.00099   0.00000  -0.02385  -0.02469  -2.05233
   D24        0.07442   0.00094   0.00000  -0.00333  -0.00374   0.07068
   D25       -1.43140  -0.00114   0.00000   0.04568   0.04536  -1.38604
   D26        0.65387  -0.00080   0.00000   0.03342   0.03285   0.68672
   D27        2.75593  -0.00085   0.00000   0.05394   0.05380   2.80973
   D28        0.09551  -0.00193   0.00000  -0.06636  -0.06515   0.03036
   D29        1.94784  -0.00234   0.00000  -0.02721  -0.02842   1.91943
   D30        0.08020  -0.00192   0.00000   0.11380   0.11138   0.19159
   D31       -1.54096   0.01225   0.00000   0.10769   0.10627  -1.43469
   D32        0.40513   0.00185   0.00000  -0.12832  -0.12514   0.27999
   D33       -0.62369  -0.00050   0.00000   0.03029   0.03059  -0.59310
   D34        1.48754  -0.00262   0.00000  -0.02729  -0.02749   1.46006
   D35       -2.76732   0.00194   0.00000   0.01651   0.01638  -2.75094
         Item               Value     Threshold  Converged?
 Maximum Force            0.024111     0.000450     NO 
 RMS     Force            0.004106     0.000300     NO 
 Maximum Displacement     0.565971     0.001800     NO 
 RMS     Displacement     0.084470     0.001200     NO 
 Predicted change in Energy=-1.962753D-03
 Lowest energy point so far.  Saving SCF results.
 GradGradGradGradGradGradGradGradGradGradGradGradGradGradGradGradGradGrad

 Leave Link  103 at Wed Dec 23 12:34:21 2020, MaxMem=  4026531840 cpu:         0.3
 (Enter /home/scicons/Gaussian09D/Gaussian09.D01/l202.exe)
                          Input orientation:                          
 ---------------------------------------------------------------------
 Center     Atomic      Atomic             Coordinates (Angstroms)
 Number     Number       Type             X           Y           Z
 ---------------------------------------------------------------------
      1         78           0        0.187097    0.009768    0.150252
      2          7           0        0.094753   -2.038884    0.292966
      3          1           0       -0.291358   -2.327887    1.188585
      4          1           0       -0.507043   -2.397931   -0.444704
      5         17           0        2.403359   -0.114670   -0.484075
      6          8           0       -1.679056    0.050274    1.680305
      7          1           0       -2.281036    0.125885    0.895538
      8          1           0       -1.700638    0.918726    2.103244
      9         17           0       -2.326564    0.191921   -1.150029
     10          7           0        0.194321    2.048663   -0.073559
     11          1           0       -0.550722    2.275467   -0.731519
     12          1           0        0.009358    2.525693    0.804774
     13          1           0        1.017066   -2.454714    0.186499
     14          1           0        1.081642    2.385509   -0.439429
 ---------------------------------------------------------------------
                    Distance matrix (angstroms):
                    1          2          3          4          5
     1  Pt   0.000000
     2  N    2.055691   0.000000
     3  H    2.602246   1.017220   0.000000
     4  H    2.575426   1.017464   1.648958   0.000000
     5  Cl   2.308608   3.104200   3.867509   3.699361   0.000000
     6  O    2.413552   3.071756   2.796988   3.447171   4.623620
     7  H    2.580817   3.270120   3.172648   3.363473   4.889250
     8  H    2.864250   3.904867   3.655567   4.349359   4.960335
     9  Cl   2.835914   3.594649   3.995074   3.242757   4.786405
    10  N    2.051155   4.105154   4.580729   4.516842   3.119036
    11  H    2.540726   4.481052   4.994491   4.682395   3.807963
    12  H    2.605738   4.593974   4.878010   5.105874   3.789973
    13  H    2.600737   1.017306   1.652947   1.650622   2.801300
    14  H    2.606161   4.591906   5.172200   5.040361   2.828396
                    6          7          8          9         10
     6  O    0.000000
     7  H    0.991946   0.000000
     8  H    0.966205   1.556924   0.000000
     9  Cl   2.906910   2.047139   3.391727   0.000000
    10  N    3.252559   3.280795   3.099371   3.310761   0.000000
    11  H    3.470089   3.203436   3.346480   2.769464   1.019529
    12  H    3.121698   3.318618   2.681875   3.837224   1.016484
    13  H    3.971838   4.247317   4.737080   4.468875   4.585296
    14  H    4.191425   4.265634   4.044467   4.114930   1.017184
                   11         12         13         14
    11  H    0.000000
    12  H    1.654237   0.000000
    13  H    5.067083   5.118808   0.000000
    14  H    1.661938   1.648480   4.880954   0.000000
 Stoichiometry    Cl2H8N2OPt
 Framework group  C1[X(Cl2H8N2OPt)]
 Deg. of freedom    36
 Full point group                 C1      NOp   1
 RotChk:  IX=3 Diff= 3.42D-01
 Largest Abelian subgroup         C1      NOp   1
 Largest concise Abelian subgroup C1      NOp   1
                         Standard orientation:                         
 ---------------------------------------------------------------------
 Center     Atomic      Atomic             Coordinates (Angstroms)
 Number     Number       Type             X           Y           Z
 ---------------------------------------------------------------------
      1         78           0        0.179276   -0.028178    0.129165
      2          7           0        0.279491   -2.057029   -0.186411
      3          1           0       -0.074975   -2.571772    0.616165
      4          1           0       -0.288459   -2.297255   -0.995705
      5         17           0        2.395388    0.195548   -0.477848
      6          8           0       -1.677506   -0.499902    1.597181
      7          1           0       -2.286463   -0.307758    0.838097
      8          1           0       -1.778882    0.247322    2.201277
      9         17           0       -2.344607    0.205968   -1.142682
     10          7           0       -0.005037    2.001366    0.362011
     11          1           0       -0.770165    2.298991   -0.242505
     12          1           0       -0.230973    2.252569    1.320702
     13          1           0        1.236317   -2.352258   -0.365955
     14          1           0        0.845680    2.491116    0.095386
 ---------------------------------------------------------------------
 Rotational constants (GHZ):      1.9037277      0.8947516      0.8233505
 Leave Link  202 at Wed Dec 23 12:34:21 2020, MaxMem=  4026531840 cpu:         0.1
 (Enter /home/scicons/Gaussian09D/Gaussian09.D01/l301.exe)
 Standard basis: def2TZVP (5D, 7F)
 Ernie: Thresh=  0.10000D-02 Tol=  0.10000D-05 Strict=F.
 There are   286 symmetry adapted cartesian basis functions of A   symmetry.
 There are   255 symmetry adapted basis functions of A   symmetry.
   255 basis functions,   430 primitive gaussians,   286 cartesian basis functions
    41 alpha electrons       41 beta electrons
       nuclear repulsion energy       520.7631852982 Hartrees.
 IExCor=  402 DFT=T Ex+Corr=B3LYP ExCW=0 ScaHFX=  0.200000
 ScaDFX=  0.800000  0.720000  1.000000  0.810000 ScalE2=  1.000000  1.000000
 IRadAn=      0 IRanWt=     -1 IRanGd=            0 ICorTp=0 IEmpDi=141
 NAtoms=   14 NActive=   14 NUniq=   14 SFac= 1.00D+00 NAtFMM=   60 NAOKFM=F Big=F
 Integral buffers will be    131072 words long.
 Raffenetti 2 integral format.
 Two-electron integral symmetry is turned on.
 R6Disp:  Grimme-D3(BJ) Dispersion energy=       -0.0280052953 Hartrees.
 Nuclear repulsion after empirical dispersion term =      520.7351800029 Hartrees.
 Leave Link  301 at Wed Dec 23 12:34:21 2020, MaxMem=  4026531840 cpu:         0.7
 (Enter /home/scicons/Gaussian09D/Gaussian09.D01/l302.exe)
 NPDir=0 NMtPBC=     1 NCelOv=     1 NCel=       1 NClECP=     1 NCelD=      1
         NCelK=      1 NCelE2=     1 NClLst=     1 CellRange=     0.0.
 One-electron integrals computed using PRISM.
   1 Symmetry operations used in ECPInt.
 ECPInt:  NShTT=    5565 NPrTT=   17197 LenC2=    5363 LenP2D=   12676.
 LDataN:  DoStor=T MaxTD1= 8 Len=  415
 NBasis=   255 RedAO= T EigKep=  1.66D-03  NBF=   255
 NBsUse=   255 1.00D-06 EigRej= -1.00D+00 NBFU=   255
 Precomputing XC quadrature grid using
 IXCGrd= 4 IRadAn=           0 IRanWt=          -1 IRanGd=           0 AccXCQ= 0.00D+00.
 Defaulting to unpruned grid for atomic number  78.
 Generated NRdTot=       0 NPtTot=           0 NUsed=           0 NTot=          32
 NSgBfM=   284   284   284   284   284 MxSgAt=    14 MxSgA2=    14.
 Leave Link  302 at Wed Dec 23 12:34:21 2020, MaxMem=  4026531840 cpu:         7.2
 (Enter /home/scicons/Gaussian09D/Gaussian09.D01/l303.exe)
 DipDrv:  MaxL=1.
 Leave Link  303 at Wed Dec 23 12:34:21 2020, MaxMem=  4026531840 cpu:         0.5
 (Enter /home/scicons/Gaussian09D/Gaussian09.D01/l401.exe)
 Initial guess from the checkpoint file:  "pt-n-n-nosolvent.chk"
 B after Tr=     0.000000    0.000000    0.000000
         Rot=    0.991104   -0.129697    0.002043   -0.029792 Ang= -15.30 deg.
 Guess basis will be translated and rotated to current coordinates.
 JPrj=2 DoOrth=T DoCkMO=T.
 Generating alternative initial guess.
 ExpMin= 4.92D-02 ExpMax= 6.95D+04 ExpMxC= 2.37D+03 IAcc=2 IRadAn=         4 AccDes= 0.00D+00
 Harris functional with IExCor=  402 and IRadAn=       4 diagonalized for initial guess.
 HarFok:  IExCor=  402 AccDes= 0.00D+00 IRadAn=         4 IDoV= 1 UseB2=F ITyADJ=14
 ICtDFT=  3500011 ScaDFX=  1.000000  1.000000  1.000000  1.000000
 Defaulting to unpruned grid for atomic number  78.
 Defaulting to unpruned grid for atomic number  78.
 Defaulting to unpruned grid for atomic number  78.
 Defaulting to unpruned grid for atomic number  78.
 Defaulting to unpruned grid for atomic number  78.
 Defaulting to unpruned grid for atomic number  78.
 Defaulting to unpruned grid for atomic number  78.
 Defaulting to unpruned grid for atomic number  78.
 Defaulting to unpruned grid for atomic number  78.
 Defaulting to unpruned grid for atomic number  78.
 Defaulting to unpruned grid for atomic number  78.
 Defaulting to unpruned grid for atomic number  78.
 Defaulting to unpruned grid for atomic number  78.
 Defaulting to unpruned grid for atomic number  78.
 Defaulting to unpruned grid for atomic number  78.
 Defaulting to unpruned grid for atomic number  78.
 Defaulting to unpruned grid for atomic number  78.
 Defaulting to unpruned grid for atomic number  78.
 Defaulting to unpruned grid for atomic number  78.
 Defaulting to unpruned grid for atomic number  78.
 FoFCou: FMM=F IPFlag=           0 FMFlag=      100000 FMFlg1=           0
         NFxFlg=           0 DoJE=T BraDBF=F KetDBF=T FulRan=T
         wScrn=  0.000000 ICntrl=     500 IOpCl=  0 I1Cent=   200000004 NGrid=           0
         NMat0=    1 NMatS0=      1 NMatT0=    0 NMatD0=    1 NMtDS0=    0 NMtDT0=    0
 Petite list used in FoFCou.
 Harris En= -1229.23213334102    
 Leave Link  401 at Wed Dec 23 12:34:22 2020, MaxMem=  4026531840 cpu:         9.1
 (Enter /home/scicons/Gaussian09D/Gaussian09.D01/l502.exe)
 Closed shell SCF:
 Using DIIS extrapolation, IDIIS=  1040.
 Integral symmetry usage will be decided dynamically.
 Keep R1 ints in memory in canonical form, NReq=544792690.
 IVT=      271762 IEndB=      271762 NGot=  4026531840 MDV=  3493558959
 LenX=  3493558959 LenY=  3493476722
 Requested convergence on RMS density matrix=1.00D-08 within 128 cycles.
 Requested convergence on MAX density matrix=1.00D-06.
 Requested convergence on             energy=1.00D-06.
 No special actions if energy rises.
 FoFCou: FMM=F IPFlag=           0 FMFlag=           0 FMFlg1=           0
         NFxFlg=           0 DoJE=F BraDBF=F KetDBF=F FulRan=T
         wScrn=  0.000000 ICntrl=     600 IOpCl=  0 I1Cent=           0 NGrid=           0
         NMat0=    1 NMatS0=  32640 NMatT0=    0 NMatD0=    1 NMtDS0=    0 NMtDT0=    0
 Symmetry not used in FoFCou.

 Cycle   1  Pass 1  IDiag  1:
 Defaulting to unpruned grid for atomic number  78.
 Defaulting to unpruned grid for atomic number  78.
 Defaulting to unpruned grid for atomic number  78.
 Defaulting to unpruned grid for atomic number  78.
 Defaulting to unpruned grid for atomic number  78.
 Defaulting to unpruned grid for atomic number  78.
 Defaulting to unpruned grid for atomic number  78.
 Defaulting to unpruned grid for atomic number  78.
 Defaulting to unpruned grid for atomic number  78.
 Defaulting to unpruned grid for atomic number  78.
 Defaulting to unpruned grid for atomic number  78.
 Defaulting to unpruned grid for atomic number  78.
 Defaulting to unpruned grid for atomic number  78.
 Defaulting to unpruned grid for atomic number  78.
 Defaulting to unpruned grid for atomic number  78.
 Defaulting to unpruned grid for atomic number  78.
 Defaulting to unpruned grid for atomic number  78.
 Defaulting to unpruned grid for atomic number  78.
 Defaulting to unpruned grid for atomic number  78.
 Defaulting to unpruned grid for atomic number  78.
 E= -1229.62620290138    
 DIIS: error= 1.27D-02 at cycle   1 NSaved=   1.
 NSaved= 1 IEnMin= 1 EnMin= -1229.62620290138     IErMin= 1 ErrMin= 1.27D-02
 ErrMax= 1.27D-02  0.00D+00 EMaxC= 1.00D-01 BMatC= 1.79D-02 BMatP= 1.79D-02
 IDIUse=3 WtCom= 8.73D-01 WtEn= 1.27D-01
 Coeff-Com:  0.100D+01
 Coeff-En:   0.100D+01
 Coeff:      0.100D+01
 Recover alternate guess density for next cycle.
 RMSDP=2.31D-03 MaxDP=1.11D-01              OVMax= 0.00D+00

 Cycle   2  Pass 1  IDiag  1:
 E= -1229.16390615965     Delta-E=        0.462296741732 Rises=F Damp=F
 Switch densities from cycles 1 and 2 for lowest energy.
 DIIS: error= 3.72D-02 at cycle   2 NSaved=   2.
 NSaved= 2 IEnMin= 1 EnMin= -1229.62620290138     IErMin= 1 ErrMin= 1.27D-02
 ErrMax= 3.72D-02  0.00D+00 EMaxC= 1.00D+00 BMatC= 7.18D-01 BMatP= 1.79D-02
 IDIUse=1 WtCom= 1.00D+00 WtEn= 0.00D+00
 Coeff-Com:  0.976D+00 0.235D-01
 Coeff:      0.976D+00 0.235D-01
 Gap=     0.145 Goal=   None    Shift=    0.000
 RMSDP=4.81D-04 MaxDP=1.38D-02 DE= 4.62D-01 OVMax= 1.36D-01

 Cycle   3  Pass 1  IDiag  1:
 E= -1229.63309770644     Delta-E=       -0.469191546786 Rises=F Damp=F
 DIIS: error= 1.43D-03 at cycle   3 NSaved=   3.
 NSaved= 3 IEnMin= 3 EnMin= -1229.63309770644     IErMin= 3 ErrMin= 1.43D-03
 ErrMax= 1.43D-03  0.00D+00 EMaxC= 1.00D+00 BMatC= 1.56D-03 BMatP= 1.79D-02
 IDIUse=1 WtCom= 1.00D+00 WtEn= 0.00D+00
 Coeff-Com:  0.885D-02 0.395D-01 0.952D+00
 Coeff:      0.885D-02 0.395D-01 0.952D+00
 Gap=     0.125 Goal=   None    Shift=    0.000
 RMSDP=1.64D-04 MaxDP=8.20D-03 DE=-4.69D-01 OVMax= 1.28D-02

 Cycle   4  Pass 1  IDiag  1:
 E= -1229.63409992130     Delta-E=       -0.001002214863 Rises=F Damp=F
 DIIS: error= 7.31D-04 at cycle   4 NSaved=   4.
 NSaved= 4 IEnMin= 4 EnMin= -1229.63409992130     IErMin= 4 ErrMin= 7.31D-04
[...]
 Vib (V=0)    2  0.268327D+01          0.428664          0.987036
 Vib (V=0)    3  0.224824D+01          0.351843          0.810148
 Vib (V=0)    4  0.216294D+01          0.335044          0.771468
 Vib (V=0)    5  0.186346D+01          0.270320          0.622436
 Vib (V=0)    6  0.168496D+01          0.226590          0.521744
 Vib (V=0)    7  0.165422D+01          0.218593          0.503328
 Vib (V=0)    8  0.155372D+01          0.191373          0.440653
 Vib (V=0)    9  0.148261D+01          0.171026          0.393802
 Vib (V=0)   10  0.133595D+01          0.125789          0.289640
 Vib (V=0)   11  0.124054D+01          0.093612          0.215550
 Vib (V=0)   12  0.115527D+01          0.062683          0.144333
 Vib (V=0)   13  0.111312D+01          0.046540          0.107163
 Vib (V=0)   14  0.109802D+01          0.040610          0.093508
 Vib (V=0)   15  0.108441D+01          0.035193          0.081036
 Electronic      0.100000D+01          0.000000          0.000000
 Translational   0.221807D+09          8.345975         19.217317
 Rotational      0.743045D+06          5.871015         13.518512
 
                                                         Title Card Required
                                                             IR Spectrum
 
     3       333 3 3  3       3                                            1111 1         11                                         
     8       555 4 4  3       0                                            6666 5         22           888 77      554 4322211111    
     2       443 9 3  2       9                                            6544 9         75           431 73      207 14831985229 5 
     2       514 0 0  3       4                                            0342 3         08           816 07      914 60634279927 6 
 
     X       XXX X X  X       X                                            XXXX X         XX           XXX XX      XXX XXXXXXXXXXX X 
     X        XX X    X       X                                              X            XX           XX           X  X  X          
     X                X       X                                                           XX           XX           X  X  X          
                      X       X                                                           XX            X              X             
                              X                                                           XX            X                            
                              X                                                            X                                         
                              X                                                            X                                         
                              X                                                            X                                         
                              X                                                                                                      
                              X                                                                                                      
                              X                                                                                                      
                              X                                                                                                      
                              X                                                                                                      
                              X                                                                                                      
                              X                                                                                                      
                              X                                                                                                      
                              X                                                                                                      
                              X                                                                                                      
                              X                                                                                                      
                              X                                                                                                      
 
 ***** Axes restored to original set *****
 -------------------------------------------------------------------
 Center     Atomic                   Forces (Hartrees/Bohr)
 Number     Number              X              Y              Z
 -------------------------------------------------------------------
      1       78           0.000004757    0.000001199    0.000008957
      2        7          -0.000007736   -0.000004810   -0.000008609
      3        1          -0.000011661    0.000000144   -0.000001816
      4        1           0.000008450    0.000000620   -0.000009837
      5       17           0.000010349   -0.000004150    0.000032253
      6        8          -0.000018463    0.000000353   -0.000015878
      7        1          -0.000007693    0.000003028   -0.000025692
      8        1          -0.000023805   -0.000006471   -0.000017336
      9       17           0.000016339    0.000004622   -0.000023783
     10        7           0.000006379   -0.000000459    0.000013799
     11        1           0.000019142    0.000010080    0.000002487
     12        1          -0.000000686    0.000000235    0.000012529
     13        1          -0.000008058   -0.000002544    0.000012794
     14        1           0.000012684   -0.000001847    0.000020133
 -------------------------------------------------------------------
 Cartesian Forces:  Max     0.000032253 RMS     0.000012427
 Red2BG is reusing G-inverse.
 Leave Link  716 at Wed Dec 23 12:43:56 2020, MaxMem=  4026531840 cpu:         0.4
 (Enter /home/scicons/Gaussian09D/Gaussian09.D01/l9999.exe)
 1\1\GINC-CU10\Freq\RB3LYP\def2TZVP\Cl2H8N2O1Pt1\SKY\23-Dec-2020\0\\#p 
 opt=(calcall,ts,noeigen) b3lyp geom=connectivity def2tzvp em=gd3bj\\Ti
 tle Card Required\\0,1\Pt,0.2000387339,0.0409041811,0.1646100482\N,0.1
 143547842,-2.0048734841,0.3619346252\H,-0.3644512177,-2.2413498944,1.2
 271248823\H,-0.4127134984,-2.3937177753,-0.4160922403\Cl,2.4087140072,
 -0.0990281949,-0.4372323002\O,-1.7509676646,-0.190980078,1.5943519333\
 H,-2.311901008,0.1045581372,0.8199110455\H,-1.834764055,0.4816904347,2
 .2795076067\Cl,-2.3557799835,0.6497765606,-1.0867189407\N,0.2374519451
 ,2.0702241332,-0.1607579118\H,-0.6386052098,2.2419198477,-0.666919784\
 H,0.2710069653,2.6347368899,0.6821282382\H,1.0502967648,-2.4027558987,
 0.3577833252\H,1.0384984365,2.3067171409,-0.7407825276\\Version=ES64L-
 G09RevD.01\State=1-A\HF=-1229.6369376\RMSD=9.116e-09\RMSF=1.243e-05\Ze
 roPoint=0.1057836\Thermal=0.1165986\Dipole=0.5288527,-0.1476679,1.6845
 084\DipoleDeriv=1.0823903,-0.0774491,-0.1472687,-0.1857559,0.9884437,-
 0.3182518,0.071385,-0.3425382,0.3945657,-0.0561451,-0.0939542,0.029165
 ,-0.0274643,-0.638836,0.0734645,0.0251614,0.0683394,-0.0811729,0.19260
 55,-0.0352334,0.0024458,-0.0165503,0.1929741,-0.0194288,0.0012185,0.00
 93256,0.1786196,0.1844209,-0.014199,-0.0001356,0.0070027,0.1888233,0.0
 241413,-0.0079272,0.0038261,0.1731685,-0.8691673,0.0851037,0.0279221,0
 .0560438,-0.3459937,0.022694,0.0803731,0.0377175,-0.3651787,-0.6583502
 ,-0.0569681,0.2273095,-0.0493486,-0.319281,0.269854,0.1131137,0.231982
 9,-1.0664572,0.2354627,-0.0088146,0.1321542,0.037542,0.1860292,-0.1878
 286,-0.0101927,-0.1465242,0.7063291,0.2722685,0.0002349,-0.0048511,0.0
 14751,0.1805583,-0.059545,-0.0708135,-0.0073556,0.2889099,-1.0230778,0
 .0800072,-0.2506623,0.0810961,-0.6115459,0.1274612,-0.1876276,0.107937
 8,-0.8157408,-0.2021501,-0.03535,-0.0643126,0.0126268,-0.6150008,0.109
 9303,-0.0820781,0.0619593,-0.0535771,0.3405437,0.1562206,0.0433105,0.0
 683367,0.2423471,-0.0153028,0.0692179,0.0266105,0.1526263,0.1780376,-0
 .002979,0.0098954,0.0026102,0.1277766,0.0114332,-0.008177,-0.0146271,0
 .1463656,0.1669043,0.0744167,-0.0113636,-0.024166,0.2174635,-0.0133398
 ,0.0050333,-0.0277856,0.1749334,0.1562569,-0.0710355,0.0063914,0.02327
 59,0.2062418,-0.0252815,0.0013132,-0.0088682,0.1666085\Polar=115.73532
 81,-5.2372286,90.5615741,0.6578018,-6.1032616,81.0598674\PG=C01 [X(Cl2
 H8N2O1Pt1)]\NImag=1\\0.24804815,-0.00351335,0.29327778,-0.04591341,-0.
 01131852,0.07682232,-0.05369711,0.00318233,-0.00016571,0.69497201,-0.0
 0149882,-0.09972972,0.00578797,-0.02155443,0.35468780,0.00066840,0.003
 26472,-0.04776256,-0.00778998,0.03014643,0.67526303,0.00024791,-0.0015
 3938,-0.00080669,-0.13973460,-0.03380592,0.14122456,0.14022501,-0.0104
 8207,-0.00602007,0.01889803,-0.04723299,-0.05410049,0.08924827,0.04177
 247,0.05751883,-0.00049546,0.00524623,0.00052827,0.13930341,0.06310533
 ,-0.31716533,-0.15241513,-0.07505432,0.33764776,0.00084012,-0.00233961
 ,0.00156441,-0.15641402,-0.06457372,-0.13969565,0.01205315,0.00818831,
 0.01589528,0.15993031,-0.01125875,-0.00977950,-0.01559153,-0.08011411,
 -0.08915309,-0.12618070,0.00569250,0.00208243,0.00873889,0.07456536,0.
 09323933,0.00276751,-0.00326107,0.00453556,-0.13631695,-0.09974263,-0.
 26387868,-0.01958562,-0.01362958,-0.02344468,0.15192674,0.11438833,0.2
 8218458,-0.11040353,0.00346271,0.03775574,-0.00203857,-0.00193348,0.00
 167742,0.00004684,0.00021834,0.00001860,-0.00012834,0.00049041,-0.0001
 5686,0.12216477,0.00556797,-0.02398817,-0.00253020,-0.00904488,0.00093
 522,0.00275215,-0.00071623,-0.00029316,-0.00022492,-0.00019532,-0.0000
 7064,0.00003605,-0.00659834,0.01654000,0.02863565,-0.00311173,-0.00665
 510,0.00209250,0.00037457,0.00042209,0.00011998,-0.00027360,-0.0002029
 5,0.00010183,0.00010528,-0.00024486,-0.03407525,0.00113444,0.01191975,
 -0.02224489,0.00321968,-0.01962872,-0.00232324,0.00100165,0.00181988,-
 0.00042174,-0.00017176,-0.00058330,-0.00046914,0.00001384,0.00032167,0
 .00017881,-0.00045486,0.00917950,0.16799717,0.00052589,-0.01340078,-0.
 00297913,0.00480516,-0.00154476,-0.00186332,-0.00085363,0.00188899,-0.
 00013224,-0.00007443,-0.00004252,0.00017903,0.00023033,0.00264202,0.00
 069148,-0.11882342,0.34268164,0.00683114,-0.00498799,0.00306458,0.0028
 5301,-0.00120399,-0.00016661,0.00034472,-0.00139024,-0.00205332,-0.000
 68317,0.00059319,-0.00012144,-0.00088918,0.00118619,-0.00167897,0.1324
 7265,0.16814654,0.51942311,-0.01178226,-0.00117202,0.00858253,0.000227
 96,0.00019812,0.00013842,-0.00037601,0.00045662,0.00021655,0.00004287,
 0.00021022,0.00010295,-0.00140739,0.00021264,-0.00057063,-0.12748450,0
 .06293945,-0.15980118,0.14628608,-0.00072976,0.00410533,-0.00417187,-0
 .00036366,-0.00056240,-0.00008886,0.00047358,-0.00007574,0.00042668,0.
 00045965,-0.00035455,-0.00031997,0.00044270,-0.00034284,0.00080340,0.0
 7973914,-0.07305121,0.08415064,-0.06123519,0.07022015,0.00400584,-0.00
 641593,0.01853227,0.00107478,0.00034859,-0.00006979,-0.00105059,0.0016
 1873,0.00086677,0.00039075,-0.00028043,0.00022783,-0.00158483,0.000579
 35,-0.00350672,-0.11718021,0.04713975,-0.21387569,0.13820865,-0.050183
 05,0.21205180,0.00042528,0.00598136,-0.00031185,-0.00099976,0.00017437
 ,0.00018520,0.00019293,-0.00031945,0.00033492,0.00010435,-0.00007873,0
 .00002141,0.00010605,-0.00087914,0.00010066,-0.03000041,0.05093827,0.0
 2897050,0.00416123,-0.02048249,-0.01418801,0.02464406,0.00103313,0.001
 44399,-0.00066117,0.00042687,-0.00025832,-0.00003835,-0.00049389,0.000
 43559,-0.00040823,-0.00009611,0.00000439,0.00009390,-0.00025233,-0.000
 06700,0.00030708,0.03360916,-0.26436742,-0.25886605,0.00031165,0.00680
 210,0.00898123,-0.03517910,0.25751375,0.00124458,-0.00134314,-0.002048
 60,-0.00031995,0.00017262,0.00002192,0.00046744,-0.00030337,0.00012815
 ,0.00003427,-0.00006051,-0.00009434,-0.00059008,0.00035458,0.00042034,
 0.00716233,-0.22287195,-0.26692584,0.00726776,-0.02729708,-0.01881149,
 -0.01489739,0.24858193,0.28902242,-0.00676782,-0.00687008,0.01411613,0
 .00114402,0.00092642,0.00025030,-0.00026486,-0.00010273,0.00002556,-0.
 00062912,0.00035990,-0.00039908,-0.00666553,0.00153715,-0.00366470,0.0
 1452185,0.00084765,-0.00802432,-0.00940229,0.00219288,-0.01031785,0.00
 084378,0.00084152,-0.00055711,0.01977066,-0.00184453,-0.00686187,-0.00
 316535,0.00120515,0.00093648,-0.00011139,-0.00031536,0.00046202,-0.000
 06469,-0.00082897,0.00097923,-0.00019808,0.00251525,0.00101959,0.00094
 022,0.00244195,0.00335608,0.01344351,-0.00196462,-0.00568337,-0.003699
 23,0.00043864,-0.00127511,0.00233557,0.00392337,0.00734778,0.00013752,
 -0.00171046,0.00109925,-0.00000973,0.00021313,-0.00000043,0.00065911,-
 0.00089422,-0.00023225,-0.00023058,0.00026943,-0.00064110,-0.00137870,
 0.00062147,-0.00053757,-0.01279018,0.01201929,-0.03725703,0.00520474,-
 0.00347554,0.00359804,-0.00054989,0.00186149,-0.00150955,0.01354077,-0
 .00682079,0.03789931,-0.05430321,-0.00444192,0.00454922,0.01431258,-0.
 00014788,0.00069938,0.00015383,0.00133190,0.00022081,0.00009558,0.0019
 3847,-0.00069769,-0.00069697,0.00985547,-0.00087843,0.00101648,-0.0016
 6572,0.00002213,-0.00058738,0.00028948,-0.00133627,0.00049710,0.000252
 77,-0.00016755,-0.00899645,-0.00978850,-0.00294275,0.67786927,0.001074
 84,-0.09993185,0.00630776,-0.00157005,-0.01322894,0.00506977,0.0004898
 6,-0.00304162,-0.00091460,0.00058903,-0.00117084,0.00121275,0.00243258
 ,-0.00050173,-0.00015986,-0.00070791,0.00093474,0.00046409,0.00009183,
 -0.00039044,0.00052463,-0.00016265,-0.00008696,0.00004532,-0.00383156,
 -0.00129299,-0.00090079,0.02578984,0.37134455,0.00362822,0.01502509,-0
 .05272272,0.00036840,0.00186638,0.01669866,0.00002094,-0.00311985,0.00
 027127,-0.00025045,0.00367733,-0.00067304,0.00023322,-0.00174472,0.001
 49029,-0.00050376,0.00077922,0.00101580,-0.00029961,-0.00018712,-0.000
 32059,-0.00029127,-0.00012191,0.00004136,-0.00414360,-0.00287589,0.002
 09685,-0.01573632,0.09045446,0.65225941,0.00400786,0.00468004,0.001737
 28,-0.00025002,-0.00198878,0.00012426,0.00022781,-0.00031309,-0.000056
 66,0.00040521,-0.00040252,0.00021610,-0.00113639,0.00025983,-0.0004103
 6,-0.00056133,0.00085067,-0.00258402,0.00064609,-0.00067333,0.00250157
 ,0.00026065,0.00007576,0.00002345,-0.00130952,0.00541970,-0.00163584,-
 0.28997443,0.04593996,-0.13088019,0.30173856,0.01924362,-0.01055273,0.
 01279426,-0.00280895,-0.00218400,-0.00174766,0.00006618,-0.00012272,-0
 .00009956,0.00014100,-0.00092240,0.00030825,-0.00099241,-0.00047872,-0
 .00009826,-0.00004885,0.00074332,-0.00148982,0.00016848,-0.00052106,0.
 00149054,-0.00006925,0.00006866,0.00011429,0.00051679,0.00106977,-0.00
 112567,0.07134584,-0.04434191,0.03414283,-0.05962907,0.05445425,-0.001
 72722,0.00561320,-0.00118483,0.00034923,-0.00064369,0.00078470,0.00004
 644,-0.00018554,-0.00001656,0.00010810,0.00006838,0.00004105,-0.000557
 44,-0.00057878,-0.00008392,-0.00035610,-0.00014752,-0.00108573,0.00084
 341,0.00039249,0.00140428,0.00009997,0.00028757,-0.00032633,0.00001438
 ,0.00114273,-0.00399636,-0.13584121,0.02038922,-0.14306066,0.14217879,
 -0.02963547,0.14584794,-0.00089761,-0.00044764,0.00020191,0.00040681,0
 .00009334,-0.00026407,0.00007170,0.00007116,0.00000152,0.00002497,-0.0
 0000802,-0.00000827,-0.00007743,0.00012381,-0.00021503,-0.00003591,0.0
 0033039,0.00031554,-0.00022670,-0.00020529,-0.00038118,-0.00013232,-0.
 00039427,0.00034150,-0.00121770,-0.00054431,0.00071288,-0.06183536,-0.
 00775889,-0.00976744,0.00516908,-0.01969706,-0.02638760,0.05515875,0.0
 0008789,-0.00854115,-0.01613957,0.00001684,-0.00190871,0.00407680,0.00
 012314,-0.00097829,-0.00010147,0.00003173,0.00058048,-0.00004229,-0.00
 018613,0.00020178,0.00025920,-0.00005547,0.00063860,0.00023799,-0.0002
 2470,-0.00012933,-0.00007531,-0.00054503,-0.00017972,0.00030324,-0.000
 02743,0.00006170,0.00016610,-0.00820237,-0.15169114,-0.19095624,-0.000
 61032,0.00274559,0.00850398,0.00915977,0.15516528,-0.00073413,-0.00170
 934,0.00812915,0.00021227,0.00176826,-0.00155398,-0.00008335,0.0005165
 9,0.00008280,-0.00003747,-0.00015730,-0.00004817,0.00004321,-0.0002480
 8,-0.00017231,0.00008061,-0.00032846,-0.00047014,0.00006765,-0.0000415
 5,0.00019852,0.00047790,0.00020505,-0.00007223,-0.00037856,-0.00014661
 ,-0.00010109,-0.00769735,-0.16085151,-0.30007000,0.00308521,-0.0099799
 8,-0.01376305,0.00852954,0.18362994,0.32541745,0.00428725,0.00323848,-
 0.00018508,-0.35563304,0.12171831,0.00078316,-0.01242258,0.00655875,-0
 .00249589,-0.01582047,0.00840281,0.00187762,0.00006257,0.00212432,-0.0
 0089379,-0.00012935,-0.00022192,0.00008803,-0.00005377,0.00009653,-0.0
 0004054,0.00001766,-0.00004630,-0.00008550,-0.00018320,-0.00006704,-0.
 00001778,-0.00031551,-0.00159127,0.00023965,-0.00003804,-0.00004965,-0
 .00002814,0.00002045,-0.00017175,0.00010917,0.37977139,0.02027485,-0.0
 1161047,-0.00009878,0.15065242,-0.09191376,-0.00273079,-0.01095396,0.0
 0176525,-0.00049147,-0.01593861,0.00486534,0.00091017,-0.00091996,0.00
 224990,-0.00017277,-0.00006615,-0.00036271,-0.00003176,-0.00006593,0.0
 0000817,-0.00008567,0.00012912,-0.00003060,-0.00004384,-0.00043062,0.0
 0008316,-0.00012366,-0.00311585,-0.00140330,0.00013801,-0.00011333,0.0
 0043233,-0.00011091,-0.00005452,-0.00018532,0.00008289,-0.13963569,0.0
 9692149,-0.00189945,0.00128203,-0.00044080,-0.00128425,-0.00178779,-0.
 06331635,0.03107102,-0.01525581,0.00361278,-0.02911219,0.01437191,0.00
 210877,-0.00003094,-0.00103962,-0.00060069,0.00015877,-0.00062595,-0.0
 0004268,-0.00000959,-0.00006102,-0.00023660,0.00011087,-0.00017365,0.0
 0016023,0.00010909,0.00013429,0.00017512,0.00024056,0.00028205,0.00032
 614,0.00001666,-0.00004255,0.00001407,0.00002024,0.00012687,-0.0000265
 9,0.00072054,0.00270925,0.05824957,0.00223987,-0.00344059,-0.00149575,
 0.00002697,0.00139083,0.00017873,0.00000063,0.00002455,0.00002979,-0.0
 0003546,0.00018860,-0.00006953,-0.00000489,-0.00179241,0.00047807,-0.0
 0004381,0.00017133,0.00008414,-0.00004393,-0.00000424,-0.00010213,-0.0
 0012061,-0.00008888,0.00007625,-0.00084383,-0.00059073,-0.00069956,-0.
 27723553,-0.06078561,0.15738218,-0.01918552,-0.00818667,0.02125738,0.0
 0357126,0.00060383,-0.00367470,0.00043664,0.00023823,-0.00011134,0.291
 23820,-0.01848092,-0.00841078,0.01286808,0.00240032,-0.00197532,-0.001
 79707,0.00006064,0.00047898,-0.00002564,0.00007168,-0.00025766,0.00006
 513,0.00109034,0.00215375,-0.00079946,0.00030299,-0.00011598,-0.000252
 28,0.00007344,-0.00002481,0.00005681,0.00005409,-0.00000335,0.00001235
 ,0.00011673,-0.00020246,-0.00009978,-0.08344152,-0.05519757,0.05292240
 ,0.00650450,-0.00039039,-0.00509566,0.01933153,0.00422023,-0.01273991,
 -0.00035558,-0.00081949,0.00008000,0.07227176,0.06054485,0.00285081,0.
 00342690,-0.00189679,-0.00036703,-0.00040518,0.00072332,-0.00001282,-0
 .00017509,-0.00002270,-0.00001187,0.00005771,0.00004853,-0.00046491,-0
 .00029791,-0.00056939,-0.00015316,-0.00000675,0.00017395,0.00004834,0.
 00005286,-0.00005862,-0.00006303,-0.00004889,-0.00000604,-0.00057102,-
 0.00091430,-0.00059319,0.15956547,0.03807671,-0.17735278,-0.01431625,-
 0.00463120,0.01542540,0.02690045,0.01001076,-0.01755037,-0.00007144,0.
 00004932,0.00001703,-0.17333354,-0.04519496,0.18166166\\-0.00000476,-0
 .00000120,-0.00000896,0.00000774,0.00000481,0.00000861,0.00001166,-0.0
 0000014,0.00000182,-0.00000845,-0.00000062,0.00000984,-0.00001035,0.00
 000415,-0.00003225,0.00001846,-0.00000035,0.00001588,0.00000769,-0.000
 00303,0.00002569,0.00002380,0.00000647,0.00001734,-0.00001634,-0.00000
 462,0.00002378,-0.00000638,0.00000046,-0.00001380,-0.00001914,-0.00001
 008,-0.00000249,0.00000069,-0.00000023,-0.00001253,0.00000806,0.000002
 54,-0.00001279,-0.00001268,0.00000185,-0.00002013\\\@


 OF ALL THE WONDERS OF THE UNIVERSE, THE GREATEST IS MAN.

                                    -- ARISTOTLE
 Job cpu time:       0 days  3 hours 11 minutes 50.0 seconds.
 File lengths (MBytes):  RWF=    109 Int=      0 D2E=      0 Chk=      7 Scr=      1
 Normal termination of Gaussian 09 at Wed Dec 23 12:43:56 2020.
